file 17377808 1427144412                                        
version 2
run MCoA_ALL-0-20150323-22:00:06-6401
attr configname MCoA_ALL
attr datetime 20150323-22:00:06
attr experiment MCoA_ALL
attr inifile VoIPMCoACN.ini
attr iterationvars ""
attr iterationvars2 $repetition=0
attr measurement ""
attr network VoIPMCoAMulti
attr processid 6401
attr repetition 0
attr replication #0
attr resultdir results
attr runnumber 0
attr seedset 0

vector 0  VoIPMCoAMulti.Ra.networkLayer.ipv6  IPv6Active_Event  ETV
vector 51  VoIPMCoAMulti.CN[0].networkLayer.ipv6  IPv6Active_Event  ETV
vector 76  VoIPMCoAMulti.HA.networkLayer.ipv6  IPv6Active_Event  ETV
vector 133  VoIPMCoAMulti.MN[0].networkLayer.ipv6  IPv6Active_Event  ETV
vector 156  VoIPMCoAMulti.MN[1].networkLayer.ipv6  IPv6Active_Event  ETV
vector 162  VoIPMCoAMulti.R1.networkLayer.ipv6  IPv6Active_Event  ETV
vector 241  VoIPMCoAMulti.Rb.networkLayer.ipv6  IPv6Active_Event  ETV
vector 109  VoIPMCoAMulti.AP_HA.wlan.mac  RadioState  ETV
attr enum  "IDLE=0, RECV=1, SLEEP=3, TRANSMIT=2"
attr enumname  RadioState
vector 108  VoIPMCoAMulti.AP_HA.wlan.mac  State  ETV
attr enum  "BACKOFF=3, DEFER=1, IDLE=0, RECEIVE=8, WAITACK=4, WAITBROADCAST=5, WAITCTS=6, WAITDIFS=2, WAITSIFS=7"
attr enumname  Ieee80211Mac
vector 137  VoIPMCoAMulti.MN[0].wlan[0].mac  RadioState  ETV
attr enum  "IDLE=0, RECV=1, SLEEP=3, TRANSMIT=2"
attr enumname  RadioState
vector 136  VoIPMCoAMulti.MN[0].wlan[0].mac  State  ETV
attr enum  "BACKOFF=3, DEFER=1, IDLE=0, RECEIVE=8, WAITACK=4, WAITBROADCAST=5, WAITCTS=6, WAITDIFS=2, WAITSIFS=7"
attr enumname  Ieee80211Mac
vector 142  VoIPMCoAMulti.MN[0].wlan[1].mac  RadioState  ETV
attr enum  "IDLE=0, RECV=1, SLEEP=3, TRANSMIT=2"
attr enumname  RadioState
vector 141  VoIPMCoAMulti.MN[0].wlan[1].mac  State  ETV
attr enum  "BACKOFF=3, DEFER=1, IDLE=0, RECEIVE=8, WAITACK=4, WAITBROADCAST=5, WAITCTS=6, WAITDIFS=2, WAITSIFS=7"
attr enumname  Ieee80211Mac
vector 147  VoIPMCoAMulti.MN[0].wlan[2].mac  RadioState  ETV
attr enum  "IDLE=0, RECV=1, SLEEP=3, TRANSMIT=2"
attr enumname  RadioState
vector 146  VoIPMCoAMulti.MN[0].wlan[2].mac  State  ETV
attr enum  "BACKOFF=3, DEFER=1, IDLE=0, RECEIVE=8, WAITACK=4, WAITBROADCAST=5, WAITCTS=6, WAITDIFS=2, WAITSIFS=7"
attr enumname  Ieee80211Mac
vector 160  VoIPMCoAMulti.MN[1].wlan[0].mac  RadioState  ETV
attr enum  "IDLE=0, RECV=1, SLEEP=3, TRANSMIT=2"
attr enumname  RadioState
vector 159  VoIPMCoAMulti.MN[1].wlan[0].mac  State  ETV
attr enum  "BACKOFF=3, DEFER=1, IDLE=0, RECEIVE=8, WAITACK=4, WAITBROADCAST=5, WAITCTS=6, WAITDIFS=2, WAITSIFS=7"
attr enumname  Ieee80211Mac
vector 209  VoIPMCoAMulti.AP_1.wlan.mac  RadioState  ETV
attr enum  "IDLE=0, RECV=1, SLEEP=3, TRANSMIT=2"
attr enumname  RadioState
vector 208  VoIPMCoAMulti.AP_1.wlan.mac  State  ETV
attr enum  "BACKOFF=3, DEFER=1, IDLE=0, RECEIVE=8, WAITACK=4, WAITBROADCAST=5, WAITCTS=6, WAITDIFS=2, WAITSIFS=7"
attr enumname  Ieee80211Mac
vector 227  VoIPMCoAMulti.AP_2.wlan.mac  RadioState  ETV
attr enum  "IDLE=0, RECV=1, SLEEP=3, TRANSMIT=2"
attr enumname  RadioState
vector 226  VoIPMCoAMulti.AP_2.wlan.mac  State  ETV
attr enum  "BACKOFF=3, DEFER=1, IDLE=0, RECEIVE=8, WAITACK=4, WAITBROADCAST=5, WAITCTS=6, WAITDIFS=2, WAITSIFS=7"
attr enumname  Ieee80211Mac
vector 177  VoIPMCoAMulti.R1.eth[1].queue  "queue length"  ETV
vector 91  VoIPMCoAMulti.HA.eth[1].queue  "queue length"  ETV
vector 191  VoIPMCoAMulti.R1.eth[2].queue  "queue length"  ETV
vector 271  VoIPMCoAMulti.CN[0].networkLayer.neighbourDiscovery  "Starting DAD"  ETV
vector 324  VoIPMCoAMulti.Rb.networkLayer.neighbourDiscovery  "Starting DAD"  ETV
vector 270  VoIPMCoAMulti.Ra.networkLayer.neighbourDiscovery  "Starting DAD"  ETV
vector 323  VoIPMCoAMulti.R1.networkLayer.neighbourDiscovery  "Starting DAD"  ETV
vector 297  VoIPMCoAMulti.MN[0].networkLayer.neighbourDiscovery  "Starting DAD"  ETV
vector 284  VoIPMCoAMulti.HA.networkLayer.neighbourDiscovery  "Starting DAD"  ETV
vector 310  VoIPMCoAMulti.MN[1].networkLayer.neighbourDiscovery  "Starting DAD"  ETV
vector 3  VoIPMCoAMulti.Ra.eth[0].mac  framesSent  ETV
vector 5  VoIPMCoAMulti.Ra.eth[0].mac  bytesSent  ETV
vector 17  VoIPMCoAMulti.Ra.eth[1].mac  framesSent  ETV
vector 19  VoIPMCoAMulti.Ra.eth[1].mac  bytesSent  ETV
vector 31  VoIPMCoAMulti.Ra.eth[2].mac  framesSent  ETV
vector 33  VoIPMCoAMulti.Ra.eth[2].mac  bytesSent  ETV
vector 54  VoIPMCoAMulti.CN[0].eth[0].mac  framesSent  ETV
vector 56  VoIPMCoAMulti.CN[0].eth[0].mac  bytesSent  ETV
vector 79  VoIPMCoAMulti.HA.eth[0].mac  framesSent  ETV
vector 81  VoIPMCoAMulti.HA.eth[0].mac  bytesSent  ETV
vector 93  VoIPMCoAMulti.HA.eth[1].mac  framesSent  ETV
vector 95  VoIPMCoAMulti.HA.eth[1].mac  bytesSent  ETV
vector 165  VoIPMCoAMulti.R1.eth[0].mac  framesSent  ETV
vector 167  VoIPMCoAMulti.R1.eth[0].mac  bytesSent  ETV
vector 179  VoIPMCoAMulti.R1.eth[1].mac  framesSent  ETV
vector 181  VoIPMCoAMulti.R1.eth[1].mac  bytesSent  ETV
vector 193  VoIPMCoAMulti.R1.eth[2].mac  framesSent  ETV
vector 195  VoIPMCoAMulti.R1.eth[2].mac  bytesSent  ETV
vector 244  VoIPMCoAMulti.Rb.eth[0].mac  framesSent  ETV
vector 246  VoIPMCoAMulti.Rb.eth[0].mac  bytesSent  ETV
vector 258  VoIPMCoAMulti.Rb.eth[1].mac  framesSent  ETV
vector 260  VoIPMCoAMulti.Rb.eth[1].mac  bytesSent  ETV
vector 80  VoIPMCoAMulti.HA.eth[0].mac  framesReceivedOK  ETV
vector 82  VoIPMCoAMulti.HA.eth[0].mac  bytesReceivedOK  ETV
vector 86  VoIPMCoAMulti.HA.eth[0].mac  framesPassedToHL  ETV
vector 166  VoIPMCoAMulti.R1.eth[0].mac  framesReceivedOK  ETV
vector 168  VoIPMCoAMulti.R1.eth[0].mac  bytesReceivedOK  ETV
vector 172  VoIPMCoAMulti.R1.eth[0].mac  framesPassedToHL  ETV
vector 4  VoIPMCoAMulti.Ra.eth[0].mac  framesReceivedOK  ETV
vector 6  VoIPMCoAMulti.Ra.eth[0].mac  bytesReceivedOK  ETV
vector 10  VoIPMCoAMulti.Ra.eth[0].mac  framesPassedToHL  ETV
vector 112  VoIPMCoAMulti.AP_HA.eth[0]  framesReceivedOK  ETV
vector 114  VoIPMCoAMulti.AP_HA.eth[0]  bytesReceivedOK  ETV
vector 118  VoIPMCoAMulti.AP_HA.eth[0]  framesPassedToHL  ETV
vector 18  VoIPMCoAMulti.Ra.eth[1].mac  framesReceivedOK  ETV
vector 20  VoIPMCoAMulti.Ra.eth[1].mac  bytesReceivedOK  ETV
vector 24  VoIPMCoAMulti.Ra.eth[1].mac  framesPassedToHL  ETV
vector 212  VoIPMCoAMulti.AP_1.eth[0]  framesReceivedOK  ETV
vector 214  VoIPMCoAMulti.AP_1.eth[0]  bytesReceivedOK  ETV
vector 218  VoIPMCoAMulti.AP_1.eth[0]  framesPassedToHL  ETV
vector 230  VoIPMCoAMulti.AP_2.eth[0]  framesReceivedOK  ETV
vector 232  VoIPMCoAMulti.AP_2.eth[0]  bytesReceivedOK  ETV
vector 236  VoIPMCoAMulti.AP_2.eth[0]  framesPassedToHL  ETV
vector 105  VoIPMCoAMulti.AP_HA.relayUnit  "buffer level"  ETV
vector 205  VoIPMCoAMulti.AP_1.relayUnit  "buffer level"  ETV
vector 223  VoIPMCoAMulti.AP_2.relayUnit  "buffer level"  ETV
vector 106  VoIPMCoAMulti.AP_HA.wlan.mgmt  "queue length"  ETV
vector 206  VoIPMCoAMulti.AP_1.wlan.mgmt  "queue length"  ETV
vector 224  VoIPMCoAMulti.AP_2.wlan.mgmt  "queue length"  ETV
vector 245  VoIPMCoAMulti.Rb.eth[0].mac  framesReceivedOK  ETV
vector 247  VoIPMCoAMulti.Rb.eth[0].mac  bytesReceivedOK  ETV
vector 251  VoIPMCoAMulti.Rb.eth[0].mac  framesPassedToHL  ETV
vector 32  VoIPMCoAMulti.Ra.eth[2].mac  framesReceivedOK  ETV
vector 34  VoIPMCoAMulti.Ra.eth[2].mac  bytesReceivedOK  ETV
vector 38  VoIPMCoAMulti.Ra.eth[2].mac  framesPassedToHL  ETV
vector 259  VoIPMCoAMulti.Rb.eth[1].mac  framesReceivedOK  ETV
vector 261  VoIPMCoAMulti.Rb.eth[1].mac  bytesReceivedOK  ETV
vector 265  VoIPMCoAMulti.Rb.eth[1].mac  framesPassedToHL  ETV
vector 55  VoIPMCoAMulti.CN[0].eth[0].mac  framesReceivedOK  ETV
vector 57  VoIPMCoAMulti.CN[0].eth[0].mac  bytesReceivedOK  ETV
vector 61  VoIPMCoAMulti.CN[0].eth[0].mac  framesPassedToHL  ETV
vector 161  VoIPMCoAMulti.MN[1].wlan[0].radio  "MAC loss rate"  ETV
vector 138  VoIPMCoAMulti.MN[0].wlan[0].radio  "MAC loss rate"  ETV
vector 111  VoIPMCoAMulti.AP_HA.eth[0]  framesSent  ETV
vector 113  VoIPMCoAMulti.AP_HA.eth[0]  bytesSent  ETV
vector 94  VoIPMCoAMulti.HA.eth[1].mac  framesReceivedOK  ETV
vector 96  VoIPMCoAMulti.HA.eth[1].mac  bytesReceivedOK  ETV
vector 100  VoIPMCoAMulti.HA.eth[1].mac  framesPassedToHL  ETV
vector 77  VoIPMCoAMulti.HA.eth[0].queue  "queue length"  ETV
vector 29  VoIPMCoAMulti.Ra.eth[2].queue  "queue length"  ETV
vector 256  VoIPMCoAMulti.Rb.eth[1].queue  "queue length"  ETV
vector 52  VoIPMCoAMulti.CN[0].eth[0].queue  "queue length"  ETV
vector 242  VoIPMCoAMulti.Rb.eth[0].queue  "queue length"  ETV
vector 1  VoIPMCoAMulti.Ra.eth[0].queue  "queue length"  ETV
vector 143  VoIPMCoAMulti.MN[0].wlan[1].radio  "MAC loss rate"  ETV
vector 298  VoIPMCoAMulti.MN[0].networkLayer.xMobileIPv6  "BU to HA"  ETV
vector 211  VoIPMCoAMulti.AP_1.eth[0]  framesSent  ETV
vector 213  VoIPMCoAMulti.AP_1.eth[0]  bytesSent  ETV
vector 180  VoIPMCoAMulti.R1.eth[1].mac  framesReceivedOK  ETV
vector 182  VoIPMCoAMulti.R1.eth[1].mac  bytesReceivedOK  ETV
vector 186  VoIPMCoAMulti.R1.eth[1].mac  framesPassedToHL  ETV
vector 288  VoIPMCoAMulti.HA.networkLayer.xMobileIPv6  "BA to MN"  ETV
vector 302  VoIPMCoAMulti.MN[0].networkLayer.xMobileIPv6  "BA from HA"  ETV
vector 304  VoIPMCoAMulti.MN[0].networkLayer.xMobileIPv6  "HoTI to CN"  ETV
vector 305  VoIPMCoAMulti.MN[0].networkLayer.xMobileIPv6  "CoTI to CN"  ETV
vector 139  VoIPMCoAMulti.MN[0].wlan[1].mgmt  "queue length"  ETV
vector 293  VoIPMCoAMulti.HA.networkLayer.xMobileIPv6  "HoT to MN"  ETV
vector 294  VoIPMCoAMulti.HA.networkLayer.xMobileIPv6  "CoT to MN"  ETV
vector 308  VoIPMCoAMulti.MN[0].networkLayer.xMobileIPv6  "HoT from CN"  ETV
vector 309  VoIPMCoAMulti.MN[0].networkLayer.xMobileIPv6  "CoT from CN"  ETV
vector 299  VoIPMCoAMulti.MN[0].networkLayer.xMobileIPv6  "BU to CN"  ETV
vector 280  VoIPMCoAMulti.CN[0].networkLayer.xMobileIPv6  "HoT to MN"  ETV
vector 281  VoIPMCoAMulti.CN[0].networkLayer.xMobileIPv6  "CoT to MN"  ETV
vector 275  VoIPMCoAMulti.CN[0].networkLayer.xMobileIPv6  "BA to MN"  ETV
vector 303  VoIPMCoAMulti.MN[0].networkLayer.xMobileIPv6  "BA from CN"  ETV
vector 134  VoIPMCoAMulti.MN[0].wlan[0].mgmt  "queue length"  ETV
vector 110  VoIPMCoAMulti.AP_HA.wlan.radio  "MAC loss rate"  ETV
vector 210  VoIPMCoAMulti.AP_1.wlan.radio  "MAC loss rate"  ETV
vector 148  VoIPMCoAMulti.MN[0].wlan[2].radio  "MAC loss rate"  ETV
vector 229  VoIPMCoAMulti.AP_2.eth[0]  framesSent  ETV
vector 231  VoIPMCoAMulti.AP_2.eth[0]  bytesSent  ETV
vector 194  VoIPMCoAMulti.R1.eth[2].mac  framesReceivedOK  ETV
vector 196  VoIPMCoAMulti.R1.eth[2].mac  bytesReceivedOK  ETV
vector 200  VoIPMCoAMulti.R1.eth[2].mac  framesPassedToHL  ETV
vector 144  VoIPMCoAMulti.MN[0].wlan[2].mgmt  "queue length"  ETV
0	10522 8 0 0 0 0 1 1 1 1 1
1	10530 52 18253 18257 10.261443140874 10.261511940874 2 0 1 1 1
3	10582 550 540 93162 1.0000672 38.949762495953 21 1 21 231 3311
4	11132 5244 802 93275 1.0100672 38.969856895953 192 1 192 18528 2377760
5	16376 588 540 93162 1.0000672 38.949762495953 21 64 1856 18388 22768584
6	16964 5575 802 93275 1.0100672 38.969856895953 192 64 13172 1266316 10968134544
10	22539 5436 802 93275 1.0100672 38.969856895953 192 1 192 18528 2377760
17	27975 10264 541 93675 1.0000672 39.092905742816 359 1 359 64620 15487260
18	38239 459 804 93501 1.0100672 39.012281742816 17 1 17 153 1785
19	38698 10932 541 93675 1.0000672 39.092905742816 359 64 24332 4369942 70066945980
20	49630 491 804 93501 1.0100672 39.012281742816 17 64 1782 14664 17383176
24	50121 459 804 93501 1.0100672 39.012281742816 17 1 17 153 1785
29	50580 54 17779 17783 10.080695940874 10.080764740874 2 0 1 1 1
31	50634 5233 542 93508 1.0000672 39.012416142816 185 1 185 17205 2127685
32	55867 10178 1450 93667 1.0200672 39.092787342816 356 1 356 63546 15102766
33	66045 5548 542 93508 1.0000672 39.012416142816 185 64 12466 1155632 9534173072
34	71593 10834 1450 93667 1.0200672 39.092787342816 356 64 23700 4224636 66537596608
38	82427 10178 1450 93667 1.0200672 39.092787342816 356 1 356 63546 15102766
51	92605 9 0 0 0 0 1 1 1 1 1
52	92614 9204 17994 61555 10.161036740874 20.244889349881 342 0 1 171 171
54	101818 10257 543 93575 1.0000672 39.052668942816 359 1 359 64620 15487260
55	112075 5288 1452 93565 1.0200672 39.052550542816 187 1 187 17578 2197250
56	117363 10919 543 93575 1.0000672 39.052668942816 359 64 23892 4293484 68173230016
57	128282 5607 1452 93565 1.0200672 39.052550542816 187 64 12594 1179638 9833291492
61	133889 5288 1452 93565 1.0200672 39.052550542816 187 1 187 17578 2197250
76	139177 37 0 84968 0 35 3 1 2 4 6
77	139214 54 17641 17645 10.030492740874 10.030561540874 2 0 1 1 1
79	139268 5436 544 93218 1.0000672 38.959856895953 192 1 192 18528 2377760
80	144704 571 800 93209 1.0100672 38.959762495953 21 1 21 231 3311
81	145275 5767 544 93218 1.0000672 38.959856895953 192 64 13172 1266316 10968134544
82	151042 609 800 93209 1.0100672 38.959762495953 21 64 1856 18388 22768584
86	151651 571 800 93209 1.0100672 38.959762495953 21 1 21 231 3311
91	152222 832 71 764 0.115677423169 1.0012768 38 0 19 361 4579
93	153054 120294 545 388857 1.0000672 199.986961105407 3906 1 3906 7630371 19872029541
94	273348 5120 8530 52588 5.111241259032 19.194614149881 181 1 181 16471 1992991
95	278468 127479 545 388857 1.0000672 199.986961105407 3906 64 249994 488380260 81405557981504
96	405947 5386 8530 52588 5.111241259032 19.194614149881 181 40 8656 784936 4541482432
100	411333 5301 8530 52588 5.111241259032 19.194614149881 181 1 181 16471 1992991
105	416634 241378 810 388873 1.0100672 199.996963105407 8174 0 66 258650 16414484
106	658012 846 863 1507 1.0102036 1.022153927258 36 0 16 288 3114
108	658858 2484866 0 388893 0 199.997328923588 85386 0 7 217010 828074
109	3143724 738754 0 388881 0 199.997258923588 25430 0 2 24970 49482
110	3882478 110 36854 51915 17.956129751197 19.1816758406 4 0 0 0 0
111	3882588 5301 8491 52128 5.101241259032 19.184614149881 181 1 181 16471 1992991
112	3887889 124209 803 388871 1.0100672 199.996961105407 3906 1 3906 7630371 19872029541
113	4012098 5567 8491 52128 5.101241259032 19.184614149881 181 40 8656 784936 4541482432
114	4017665 131394 803 388871 1.0100672 199.996961105407 3906 64 249994 488380260 81405557981504
118	4149059 124209 803 388871 1.0100672 199.996961105407 3906 1 3906 7630371 19872029541
133	4273268 10 0 0 0 0 1 1 1 1 1
134	4273278 9126 33067 52019 16.830500894723 19.182974977059 318 0 82 10751 562907
136	4282404 846968 0 388888 0 199.997259620454 29252 0 7 21214 79874
137	5129372 508666 0 388887 0 199.997259620454 17588 0 2 9824 11888
138	5638038 2232 8118 387054 4.911634841796 198.990463900436 77 0 0 0 0
139	5640270 112 27706 27762 14.814942691886 14.816846712756 4 0 2 4 6
141	5640382 784696 0 388764 0 199.943106131525 26942 0 7 13250 54354
142	6425078 477230 0 388762 0 199.942936131525 16380 0 2 9022 10690
143	6902308 2131 26839 338423 14.542664994204 172.358707108156 73 0 0 0 0
144	6904439 111 92564 92632 38.846141448672 38.84794547449 4 0 2 4 6
146	6904550 405902 0 388552 0 199.812977021397 13884 0 7 26220 99340
147	7310452 161378 0 388550 0 199.812927021397 5520 0 2 4208 7108
148	7471830 382 91639 293204 38.462655885303 147.255675636967 13 0 0 0 0
156	7472212 10 0 0 0 0 1 1 1 1 1
159	7472222 1138350 0 388883 0 199.997259355084 39170 0 7 356 1400
160	8610572 742790 0 388882 0 199.997259355084 25536 0 2 12784 12820
161	9353362 3697 6246 387399 3.976472286066 199.186875776562 127 0 0.02 0.02 0.0004
162	9357059 71 0 100596 0 45 5 1 2 7 11
165	9357130 476 546 93481 1.0000672 39.002281742816 17 1 17 153 1785
166	9357606 10623 801 93704 1.0100672 39.102905742816 359 1 359 64620 15487260
167	9368229 508 546 93481 1.0000672 39.002281742816 17 64 1782 14664 17383176
168	9368737 11291 801 93704 1.0100672 39.102905742816 359 64 24332 4369942 70066945980
172	9380028 10623 801 93704 1.0100672 39.102905742816 359 1 359 64620 15487260
177	9390651 912 68 777 0.09995410364 1.001344 40 0 20 400 5340
179	9391563 123793 547 388778 1.0000672 199.954218149507 3894 1 3894 7583565 19689462595
180	9515356 252 27297 30344 14.703091994417 15.683147149257 9 1 9 45 285
181	9515608 130962 547 388778 1.0000672 199.954218149507 3894 64 249702 487075124 81116885644920
182	9646570 270 27297 30344 14.703091994417 15.683147149257 9 108 716 3588 1826840
186	9646840 252 27297 30344 14.703091994417 15.683147149257 9 1 9 45 285
191	9647092 960 74 786 0.118605855963 1.0014112 42 0 21 441 6181
193	9648052 121690 548 388834 1.0000672 199.978643179537 3825 1 3825 7317225 18661362825
194	9769742 252 92304 94766 38.774455547492 39.631046675341 9 1 9 45 285
195	9769994 128719 548 388834 1.0000672 199.978643179537 3825 64 245158 469425378 76761781042404
196	9898713 270 92304 94766 38.774455547492 39.631046675341 9 130 782 3896 2145752
200	9898983 252 92304 94766 38.774455547492 39.631046675341 9 1 9 45 285
205	9899235 230869 812 388819 1.0100672 199.964220149507 7806 0 144 250418 16093036
206	10130104 5200 864 46975 1.0102036 19.112104905318 190 0 18 1441 15615
208	10135304 2402214 0 388827 0 199.964585967688 82982 0 7 214900 812312
209	12537518 703246 0 388825 0 199.964515967688 24290 0 2 24016 47760
210	13240764 56 43025 46423 19.074430039035 19.106336535885 2 0 0 0 0
211	13240820 252 27278 30307 14.693091994417 15.673147149257 9 1 9 45 285
212	13241072 123803 805 388817 1.0100672 199.964218149507 3894 1 3894 7583565 19689462595
213	13364875 270 27278 30307 14.693091994417 15.673147149257 9 108 716 3588 1826840
214	13365145 130972 805 388817 1.0100672 199.964218149507 3894 64 249702 487075124 81116885644920
218	13496117 123803 805 388817 1.0100672 199.964218149507 3894 1 3894 7583565 19689462595
223	13619920 227010 813 388861 1.0100672 199.988645179537 7668 0 144 245940 15814056
224	13846930 943 865 1486 1.0102036 1.02104556362 40 0 18 356 4272
226	13847873 2385996 0 388869 0 199.989070997718 81830 0 7 210672 796580
227	16233869 686954 0 388867 0 199.988940997718 23566 0 2 23492 46912
229	16920823 252 92261 94734 38.764455547492 39.621046675341 9 1 9 45 285
230	16921075 121701 806 388859 1.0100672 199.988643179537 3825 1 3825 7317225 18661362825
231	17042776 270 92261 94734 38.764455547492 39.621046675341 9 130 782 3896 2145752
232	17043046 128730 806 388859 1.0100672 199.988643179537 3825 64 245158 469425378 76761781042404
236	17171776 121701 806 388859 1.0100672 199.988643179537 3825 1 3825 7317225 18661362825
241	17293477 10 0 0 0 0 1 1 1 1 1
242	17293487 56 18140 18144 10.221239940874 10.221308740874 2 0 1 1 1
244	17293543 10533 549 93640 1.0000672 39.072787342816 356 1 356 63546 15102766
245	17304076 5419 1449 93517 1.0200672 39.032416142816 185 1 185 17205 2127685
246	17309495 11189 549 93640 1.0000672 39.072787342816 356 64 23700 4224636 66537596608
247	17320684 5734 1449 93517 1.0200672 39.032416142816 185 64 12466 1155632 9534173072
251	17326418 5419 1449 93517 1.0200672 39.032416142816 185 1 185 17205 2127685
256	17331837 56 17937 17941 10.140899140874 10.140967940874 2 0 1 1 1
258	17331893 5474 550 93524 1.0000672 39.032550542816 187 1 187 17578 2197250
259	17337367 10617 1451 93633 1.0200672 39.072668942816 359 1 359 64620 15487260
260	17347984 5793 550 93524 1.0000672 39.032550542816 187 64 12594 1179638 9833291492
261	17353777 11279 1451 93633 1.0200672 39.072668942816 359 64 23892 4293484 68173230016
265	17365056 10617 1451 93633 1.0200672 39.072668942816 359 1 359 64620 15487260
270	17375673 75 132 132 0.233447027066 0.233447027066 3 1 1 3 3
271	17375748 50 87 3639 0.156140310969 2.528305054092 2 1 1 2 2
275	17375798 56 28903 93568 15.021000955272 39.052550542816 2 2 2 4 8
280	17375854 56 28120 92973 14.877629745246 38.909048505151 2 1 1 2 2
281	17375910 56 28176 93001 14.878592755681 38.909911511928 2 1 1 2 2
284	17375966 50 198 198 0.293585502868 0.293585502868 2 1 1 2 2
288	17376016 112 27429 93118 14.743459994417 38.939628095953 4 1 1 4 4
293	17376128 56 27953 92795 14.845830924376 38.877189682399 2 1 1 2 2
294	17376184 56 27966 92808 14.846853934811 38.877952695308 2 1 1 2 2
297	17376240 155 191 88887 0.289443216007 37.0938037931 6 1 1 6 6
298	17376395 56 27259 92241 14.692641540644 38.763971495583 2 1 1 2 2
299	17376451 624 28100 385083 14.877414782384 197.90859724711 22 1 1 22 22
302	17377075 56 27695 92553 14.814942691886 38.846141448672 2 1 1 2 2
303	17377131 55 29066 93742 15.081737651198 39.11337364008 2 1 1 2 2
304	17377186 112 27696 92556 14.814942691886 38.846141448672 4 1 1 4 4
305	17377298 112 27697 92557 14.814942691886 38.846141448672 4 1 1 4 4
308	17377410 111 28076 93395 14.876585662858 38.99010084184 4 1 1 4 4
309	17377521 111 28099 93297 14.877414782384 38.970553957708 4 1 1 4 4
310	17377632 51 254 3982 0.419663425534 2.746018912556 2 1 1 2 2
323	17377683 75 145 145 0.234158752695 0.234158752695 3 1 1 3 3
324	17377758 50 120 120 0.216189795476 0.216189795476 2 1 1 2 2
