file 16323730 1427057496                                        
version 2
run MCoA_ALL-0-20150322-21:51:28-20296
attr configname MCoA_ALL
attr datetime 20150322-21:51:28
attr experiment MCoA_ALL
attr inifile VoIPMCoACN.ini
attr iterationvars ""
attr iterationvars2 $repetition=0
attr measurement ""
attr network VoIPMCoAMulti
attr processid 20296
attr repetition 0
attr replication #0
attr resultdir results
attr runnumber 0
attr seedset 0

vector 0  VoIPMCoAMulti.Ra.networkLayer.ipv6  IPv6Active_Event  ETV
vector 51  VoIPMCoAMulti.CN[0].networkLayer.ipv6  IPv6Active_Event  ETV
vector 76  VoIPMCoAMulti.HA.networkLayer.ipv6  IPv6Active_Event  ETV
vector 133  VoIPMCoAMulti.MN[0].networkLayer.ipv6  IPv6Active_Event  ETV
vector 156  VoIPMCoAMulti.MN[1].networkLayer.ipv6  IPv6Active_Event  ETV
vector 162  VoIPMCoAMulti.R1.networkLayer.ipv6  IPv6Active_Event  ETV
vector 241  VoIPMCoAMulti.Rb.networkLayer.ipv6  IPv6Active_Event  ETV
vector 109  VoIPMCoAMulti.AP_HA.wlan.mac  RadioState  ETV
attr enum  "IDLE=0, RECV=1, SLEEP=3, TRANSMIT=2"
attr enumname  RadioState
vector 108  VoIPMCoAMulti.AP_HA.wlan.mac  State  ETV
attr enum  "BACKOFF=3, DEFER=1, IDLE=0, RECEIVE=8, WAITACK=4, WAITBROADCAST=5, WAITCTS=6, WAITDIFS=2, WAITSIFS=7"
attr enumname  Ieee80211Mac
vector 137  VoIPMCoAMulti.MN[0].wlan[0].mac  RadioState  ETV
attr enum  "IDLE=0, RECV=1, SLEEP=3, TRANSMIT=2"
attr enumname  RadioState
vector 136  VoIPMCoAMulti.MN[0].wlan[0].mac  State  ETV
attr enum  "BACKOFF=3, DEFER=1, IDLE=0, RECEIVE=8, WAITACK=4, WAITBROADCAST=5, WAITCTS=6, WAITDIFS=2, WAITSIFS=7"
attr enumname  Ieee80211Mac
vector 142  VoIPMCoAMulti.MN[0].wlan[1].mac  RadioState  ETV
attr enum  "IDLE=0, RECV=1, SLEEP=3, TRANSMIT=2"
attr enumname  RadioState
vector 141  VoIPMCoAMulti.MN[0].wlan[1].mac  State  ETV
attr enum  "BACKOFF=3, DEFER=1, IDLE=0, RECEIVE=8, WAITACK=4, WAITBROADCAST=5, WAITCTS=6, WAITDIFS=2, WAITSIFS=7"
attr enumname  Ieee80211Mac
vector 147  VoIPMCoAMulti.MN[0].wlan[2].mac  RadioState  ETV
attr enum  "IDLE=0, RECV=1, SLEEP=3, TRANSMIT=2"
attr enumname  RadioState
vector 146  VoIPMCoAMulti.MN[0].wlan[2].mac  State  ETV
attr enum  "BACKOFF=3, DEFER=1, IDLE=0, RECEIVE=8, WAITACK=4, WAITBROADCAST=5, WAITCTS=6, WAITDIFS=2, WAITSIFS=7"
attr enumname  Ieee80211Mac
vector 160  VoIPMCoAMulti.MN[1].wlan[0].mac  RadioState  ETV
attr enum  "IDLE=0, RECV=1, SLEEP=3, TRANSMIT=2"
attr enumname  RadioState
vector 159  VoIPMCoAMulti.MN[1].wlan[0].mac  State  ETV
attr enum  "BACKOFF=3, DEFER=1, IDLE=0, RECEIVE=8, WAITACK=4, WAITBROADCAST=5, WAITCTS=6, WAITDIFS=2, WAITSIFS=7"
attr enumname  Ieee80211Mac
vector 209  VoIPMCoAMulti.AP_1.wlan.mac  RadioState  ETV
attr enum  "IDLE=0, RECV=1, SLEEP=3, TRANSMIT=2"
attr enumname  RadioState
vector 208  VoIPMCoAMulti.AP_1.wlan.mac  State  ETV
attr enum  "BACKOFF=3, DEFER=1, IDLE=0, RECEIVE=8, WAITACK=4, WAITBROADCAST=5, WAITCTS=6, WAITDIFS=2, WAITSIFS=7"
attr enumname  Ieee80211Mac
vector 227  VoIPMCoAMulti.AP_2.wlan.mac  RadioState  ETV
attr enum  "IDLE=0, RECV=1, SLEEP=3, TRANSMIT=2"
attr enumname  RadioState
vector 226  VoIPMCoAMulti.AP_2.wlan.mac  State  ETV
attr enum  "BACKOFF=3, DEFER=1, IDLE=0, RECEIVE=8, WAITACK=4, WAITBROADCAST=5, WAITCTS=6, WAITDIFS=2, WAITSIFS=7"
attr enumname  Ieee80211Mac
vector 177  VoIPMCoAMulti.R1.eth[1].queue  "queue length"  ETV
vector 91  VoIPMCoAMulti.HA.eth[1].queue  "queue length"  ETV
vector 191  VoIPMCoAMulti.R1.eth[2].queue  "queue length"  ETV
vector 271  VoIPMCoAMulti.CN[0].networkLayer.neighbourDiscovery  "Starting DAD"  ETV
vector 324  VoIPMCoAMulti.Rb.networkLayer.neighbourDiscovery  "Starting DAD"  ETV
vector 270  VoIPMCoAMulti.Ra.networkLayer.neighbourDiscovery  "Starting DAD"  ETV
vector 323  VoIPMCoAMulti.R1.networkLayer.neighbourDiscovery  "Starting DAD"  ETV
vector 297  VoIPMCoAMulti.MN[0].networkLayer.neighbourDiscovery  "Starting DAD"  ETV
vector 284  VoIPMCoAMulti.HA.networkLayer.neighbourDiscovery  "Starting DAD"  ETV
vector 310  VoIPMCoAMulti.MN[1].networkLayer.neighbourDiscovery  "Starting DAD"  ETV
vector 3  VoIPMCoAMulti.Ra.eth[0].mac  framesSent  ETV
vector 5  VoIPMCoAMulti.Ra.eth[0].mac  bytesSent  ETV
vector 17  VoIPMCoAMulti.Ra.eth[1].mac  framesSent  ETV
vector 19  VoIPMCoAMulti.Ra.eth[1].mac  bytesSent  ETV
vector 31  VoIPMCoAMulti.Ra.eth[2].mac  framesSent  ETV
vector 33  VoIPMCoAMulti.Ra.eth[2].mac  bytesSent  ETV
vector 54  VoIPMCoAMulti.CN[0].eth[0].mac  framesSent  ETV
vector 56  VoIPMCoAMulti.CN[0].eth[0].mac  bytesSent  ETV
vector 79  VoIPMCoAMulti.HA.eth[0].mac  framesSent  ETV
vector 81  VoIPMCoAMulti.HA.eth[0].mac  bytesSent  ETV
vector 93  VoIPMCoAMulti.HA.eth[1].mac  framesSent  ETV
vector 95  VoIPMCoAMulti.HA.eth[1].mac  bytesSent  ETV
vector 165  VoIPMCoAMulti.R1.eth[0].mac  framesSent  ETV
vector 167  VoIPMCoAMulti.R1.eth[0].mac  bytesSent  ETV
vector 179  VoIPMCoAMulti.R1.eth[1].mac  framesSent  ETV
vector 181  VoIPMCoAMulti.R1.eth[1].mac  bytesSent  ETV
vector 193  VoIPMCoAMulti.R1.eth[2].mac  framesSent  ETV
vector 195  VoIPMCoAMulti.R1.eth[2].mac  bytesSent  ETV
vector 244  VoIPMCoAMulti.Rb.eth[0].mac  framesSent  ETV
vector 246  VoIPMCoAMulti.Rb.eth[0].mac  bytesSent  ETV
vector 258  VoIPMCoAMulti.Rb.eth[1].mac  framesSent  ETV
vector 260  VoIPMCoAMulti.Rb.eth[1].mac  bytesSent  ETV
vector 80  VoIPMCoAMulti.HA.eth[0].mac  framesReceivedOK  ETV
vector 82  VoIPMCoAMulti.HA.eth[0].mac  bytesReceivedOK  ETV
vector 86  VoIPMCoAMulti.HA.eth[0].mac  framesPassedToHL  ETV
vector 166  VoIPMCoAMulti.R1.eth[0].mac  framesReceivedOK  ETV
vector 168  VoIPMCoAMulti.R1.eth[0].mac  bytesReceivedOK  ETV
vector 172  VoIPMCoAMulti.R1.eth[0].mac  framesPassedToHL  ETV
vector 4  VoIPMCoAMulti.Ra.eth[0].mac  framesReceivedOK  ETV
vector 6  VoIPMCoAMulti.Ra.eth[0].mac  bytesReceivedOK  ETV
vector 10  VoIPMCoAMulti.Ra.eth[0].mac  framesPassedToHL  ETV
vector 112  VoIPMCoAMulti.AP_HA.eth[0]  framesReceivedOK  ETV
vector 114  VoIPMCoAMulti.AP_HA.eth[0]  bytesReceivedOK  ETV
vector 118  VoIPMCoAMulti.AP_HA.eth[0]  framesPassedToHL  ETV
vector 18  VoIPMCoAMulti.Ra.eth[1].mac  framesReceivedOK  ETV
vector 20  VoIPMCoAMulti.Ra.eth[1].mac  bytesReceivedOK  ETV
vector 24  VoIPMCoAMulti.Ra.eth[1].mac  framesPassedToHL  ETV
vector 212  VoIPMCoAMulti.AP_1.eth[0]  framesReceivedOK  ETV
vector 214  VoIPMCoAMulti.AP_1.eth[0]  bytesReceivedOK  ETV
vector 218  VoIPMCoAMulti.AP_1.eth[0]  framesPassedToHL  ETV
vector 230  VoIPMCoAMulti.AP_2.eth[0]  framesReceivedOK  ETV
vector 232  VoIPMCoAMulti.AP_2.eth[0]  bytesReceivedOK  ETV
vector 236  VoIPMCoAMulti.AP_2.eth[0]  framesPassedToHL  ETV
vector 105  VoIPMCoAMulti.AP_HA.relayUnit  "buffer level"  ETV
vector 205  VoIPMCoAMulti.AP_1.relayUnit  "buffer level"  ETV
vector 223  VoIPMCoAMulti.AP_2.relayUnit  "buffer level"  ETV
vector 106  VoIPMCoAMulti.AP_HA.wlan.mgmt  "queue length"  ETV
vector 206  VoIPMCoAMulti.AP_1.wlan.mgmt  "queue length"  ETV
vector 224  VoIPMCoAMulti.AP_2.wlan.mgmt  "queue length"  ETV
vector 245  VoIPMCoAMulti.Rb.eth[0].mac  framesReceivedOK  ETV
vector 247  VoIPMCoAMulti.Rb.eth[0].mac  bytesReceivedOK  ETV
vector 251  VoIPMCoAMulti.Rb.eth[0].mac  framesPassedToHL  ETV
vector 32  VoIPMCoAMulti.Ra.eth[2].mac  framesReceivedOK  ETV
vector 34  VoIPMCoAMulti.Ra.eth[2].mac  bytesReceivedOK  ETV
vector 38  VoIPMCoAMulti.Ra.eth[2].mac  framesPassedToHL  ETV
vector 259  VoIPMCoAMulti.Rb.eth[1].mac  framesReceivedOK  ETV
vector 261  VoIPMCoAMulti.Rb.eth[1].mac  bytesReceivedOK  ETV
vector 265  VoIPMCoAMulti.Rb.eth[1].mac  framesPassedToHL  ETV
vector 55  VoIPMCoAMulti.CN[0].eth[0].mac  framesReceivedOK  ETV
vector 57  VoIPMCoAMulti.CN[0].eth[0].mac  bytesReceivedOK  ETV
vector 61  VoIPMCoAMulti.CN[0].eth[0].mac  framesPassedToHL  ETV
vector 161  VoIPMCoAMulti.MN[1].wlan[0].radio  "MAC loss rate"  ETV
vector 138  VoIPMCoAMulti.MN[0].wlan[0].radio  "MAC loss rate"  ETV
vector 111  VoIPMCoAMulti.AP_HA.eth[0]  framesSent  ETV
vector 113  VoIPMCoAMulti.AP_HA.eth[0]  bytesSent  ETV
vector 94  VoIPMCoAMulti.HA.eth[1].mac  framesReceivedOK  ETV
vector 96  VoIPMCoAMulti.HA.eth[1].mac  bytesReceivedOK  ETV
vector 100  VoIPMCoAMulti.HA.eth[1].mac  framesPassedToHL  ETV
vector 77  VoIPMCoAMulti.HA.eth[0].queue  "queue length"  ETV
vector 29  VoIPMCoAMulti.Ra.eth[2].queue  "queue length"  ETV
vector 256  VoIPMCoAMulti.Rb.eth[1].queue  "queue length"  ETV
vector 64  VoIPMCoAMulti.CN[0].eth[0].mac  collisions  ETV
vector 65  VoIPMCoAMulti.CN[0].eth[0].mac  backoffs  ETV
vector 268  VoIPMCoAMulti.Rb.eth[1].mac  collisions  ETV
vector 298  VoIPMCoAMulti.MN[0].networkLayer.xMobileIPv6  "BU to HA"  ETV
vector 211  VoIPMCoAMulti.AP_1.eth[0]  framesSent  ETV
vector 213  VoIPMCoAMulti.AP_1.eth[0]  bytesSent  ETV
vector 180  VoIPMCoAMulti.R1.eth[1].mac  framesReceivedOK  ETV
vector 182  VoIPMCoAMulti.R1.eth[1].mac  bytesReceivedOK  ETV
vector 186  VoIPMCoAMulti.R1.eth[1].mac  framesPassedToHL  ETV
vector 288  VoIPMCoAMulti.HA.networkLayer.xMobileIPv6  "BA to MN"  ETV
vector 143  VoIPMCoAMulti.MN[0].wlan[1].radio  "MAC loss rate"  ETV
vector 302  VoIPMCoAMulti.MN[0].networkLayer.xMobileIPv6  "BA from HA"  ETV
vector 304  VoIPMCoAMulti.MN[0].networkLayer.xMobileIPv6  "HoTI to CN"  ETV
vector 305  VoIPMCoAMulti.MN[0].networkLayer.xMobileIPv6  "CoTI to CN"  ETV
vector 139  VoIPMCoAMulti.MN[0].wlan[1].mgmt  "queue length"  ETV
vector 293  VoIPMCoAMulti.HA.networkLayer.xMobileIPv6  "HoT to MN"  ETV
vector 294  VoIPMCoAMulti.HA.networkLayer.xMobileIPv6  "CoT to MN"  ETV
vector 308  VoIPMCoAMulti.MN[0].networkLayer.xMobileIPv6  "HoT from CN"  ETV
vector 309  VoIPMCoAMulti.MN[0].networkLayer.xMobileIPv6  "CoT from CN"  ETV
vector 299  VoIPMCoAMulti.MN[0].networkLayer.xMobileIPv6  "BU to CN"  ETV
vector 280  VoIPMCoAMulti.CN[0].networkLayer.xMobileIPv6  "HoT to MN"  ETV
vector 281  VoIPMCoAMulti.CN[0].networkLayer.xMobileIPv6  "CoT to MN"  ETV
vector 275  VoIPMCoAMulti.CN[0].networkLayer.xMobileIPv6  "BA to MN"  ETV
vector 303  VoIPMCoAMulti.MN[0].networkLayer.xMobileIPv6  "BA from CN"  ETV
vector 229  VoIPMCoAMulti.AP_2.eth[0]  framesSent  ETV
vector 231  VoIPMCoAMulti.AP_2.eth[0]  bytesSent  ETV
vector 194  VoIPMCoAMulti.R1.eth[2].mac  framesReceivedOK  ETV
vector 196  VoIPMCoAMulti.R1.eth[2].mac  bytesReceivedOK  ETV
vector 200  VoIPMCoAMulti.R1.eth[2].mac  framesPassedToHL  ETV
vector 148  VoIPMCoAMulti.MN[0].wlan[2].radio  "MAC loss rate"  ETV
vector 144  VoIPMCoAMulti.MN[0].wlan[2].mgmt  "queue length"  ETV
0	10313 8 0 0 0 0 1 1 1 1 1
3	10321 415 540 67394 1.0000672 38.458863158164 16 1 16 136 1496
4	10736 469 802 67496 1.0100672 38.478957558164 18 1 18 171 2109
5	11205 445 540 67394 1.0000672 38.458863158164 16 64 1526 12148 12784584
6	11650 502 802 67496 1.0100672 38.478957558164 18 64 1688 14658 16640788
10	12152 487 802 67496 1.0100672 38.478957558164 18 1 18 171 2109
17	12639 485 541 67890 1.0000672 38.59928615313 18 1 18 171 2109
18	13124 457 804 67705 1.0100672 38.51866215313 17 1 17 153 1785
19	13581 519 541 67890 1.0000672 38.59928615313 18 64 1826 16054 19729884
20	14100 489 804 67705 1.0100672 38.51866215313 17 64 1782 14664 17383176
24	14589 457 804 67705 1.0100672 38.51866215313 17 1 17 153 1785
29	15046 54 17779 17783 10.080695940874 10.080764740874 2 0 1 1 1
31	15100 289 542 67712 1.0000672 38.51879655313 11 1 11 66 506
32	15389 262 1450 67883 1.0200672 38.59916775313 10 1 10 55 385
33	15651 308 542 67712 1.0000672 38.51879655313 11 64 982 5102 3290036
34	15959 280 1450 67883 1.0200672 38.59916775313 10 64 864 4252 2470496
38	16239 262 1450 67883 1.0200672 38.59916775313 10 1 10 55 385
51	16501 9 0 0 0 0 1 1 1 1 1
54	16510 338 543 67797 1.0000672 38.55904935313 13 1 13 91 819
55	16848 314 1452 67787 1.0200672 38.55893095313 12 1 12 78 650
56	17162 360 543 67797 1.0000672 38.55904935313 13 64 1056 6658 4643844
57	17522 335 1452 67787 1.0200672 38.55893095313 12 64 1044 5978 4103452
61	17857 314 1452 67787 1.0200672 38.55893095313 12 1 12 78 650
64	18171 27 17988 17988 10.160977540874 10.160977540874 1 1 1 1 1
65	18198 27 17989 17989 10.160980740874 10.160980740874 1 1 1 1 1
76	18225 37 0 60119 0 35 3 1 2 4 6
77	18262 54 17641 17645 10.030492740874 10.030561540874 2 0 1 1 1
79	18316 487 544 67455 1.0000672 38.468957558164 18 1 18 171 2109
80	18803 431 800 67446 1.0100672 38.468863158164 16 1 16 136 1496
81	19234 520 544 67455 1.0000672 38.468957558164 18 64 1688 14658 16640788
82	19754 461 800 67446 1.0100672 38.468863158164 16 64 1526 12148 12784584
86	20215 431 800 67446 1.0100672 38.468863158164 16 1 16 136 1496
91	20646 832 71 764 0.115677423169 1.0012768 38 0 19 361 4579
93	21478 120005 545 359609 1.0000672 199.943613881128 3905 1 3905 7626465 19856772705
94	141483 184 8530 28504 5.111241259032 15.010346211736 7 1 7 28 140
95	141667 127188 545 359609 1.0000672 199.943613881128 3905 64 249922 488101148 81335287663800
96	268855 196 8530 28504 5.111241259032 15.010346211736 7 40 304 1208 264128
100	269051 191 8530 28504 5.111241259032 15.010346211736 7 1 7 28 140
105	269242 230919 810 359625 1.0100672 199.953615881128 7824 0 66 250226 16008452
106	500161 846 863 1507 1.0102036 1.022153927258 36 0 16 288 3114
108	501007 2413148 0 359695 0 199.985113900997 83026 0 7 213798 808422
109	2914155 695110 0 359687 0 199.985023900997 23926 0 2 23846 47614
111	3609265 191 8491 28446 5.101241259032 15.000346211736 7 1 7 28 140
112	3609456 123920 803 359623 1.0100672 199.953613881128 3905 1 3905 7626465 19856772705
113	3733376 203 8491 28446 5.101241259032 15.000346211736 7 40 304 1208 264128
114	3733579 131103 803 359623 1.0100672 199.953613881128 3905 64 249922 488101148 81335287663800
118	3864682 123920 803 359623 1.0100672 199.953613881128 3905 1 3905 7626465 19856772705
133	3988602 10 0 0 0 0 1 1 1 1 1
136	3988612 531188 0 359689 0 199.985024241161 18336 0 7 21448 81236
137	4519800 264538 0 359688 0 199.985024241161 9164 0 2 5766 8138
138	4784338 945 8118 356744 4.911634841796 198.3209035374 33 0 0 0 0
139	4785283 111 26519 26588 14.399087905296 14.40131197583 4 0 2 4 6
141	4785394 655656 0 359526 0 199.893586129739 22636 0 7 15216 57876
142	5441050 375920 0 359524 0 199.892936129739 12992 0 2 7336 9020
143	5816970 1620 26454 255778 14.379318196205 141.086100169173 56 0 0 0 0
144	5818590 112 66756 66806 38.353746219018 38.355570293972 4 0 2 4 6
146	5818702 622526 0 359293 0 199.763097020757 21424 0 7 17470 66338
147	6441228 343758 0 359291 0 199.762927020757 11844 0 2 6886 8818
148	6784986 1423 66648 224670 38.333487094823 124.177748522228 49 0 0 0 0
156	6786409 10 0 0 0 0 1 1 1 1 1
159	6786419 1044746 0 359692 0 199.985024332493 35936 0 7 356 1400
160	7831165 694500 0 359691 0 199.985024332493 23884 0 2 11958 11994
161	8525665 3464 6246 358973 3.976472286066 199.585024332493 119 0 0.02 0.02 0.0004
162	8529129 70 0 75880 0 45 5 1 2 7 11
165	8529199 474 546 67696 1.0000672 38.50866215313 17 1 17 153 1785
166	8529673 503 801 67917 1.0100672 38.60928615313 18 1 18 171 2109
167	8530176 506 546 67696 1.0000672 38.50866215313 17 64 1782 14664 17383176
168	8530682 537 801 67917 1.0100672 38.60928615313 18 64 1826 16054 19729884
172	8531219 503 801 67917 1.0100672 38.60928615313 18 1 18 171 2109
177	8531722 912 68 777 0.09995410364 1.001344 40 0 20 400 5340
179	8532634 120471 547 359679 1.0000672 199.981075331867 3793 1 3793 7195321 18196966809
180	8653105 251 26140 28702 14.287237170579 15.07641878267 9 1 9 45 285
181	8653356 127435 547 359679 1.0000672 199.981075331867 3793 64 243068 461608238 74824482801228
182	8780791 269 26140 28702 14.287237170579 15.07641878267 9 108 716 3588 1826840
186	8781060 251 26140 28702 14.287237170579 15.07641878267 9 1 9 45 285
191	8781311 960 74 786 0.118605855963 1.0014112 42 0 21 441 6181
193	8782271 121301 548 359652 1.0000672 199.955260411871 3819 1 3819 7294290 18573693770
194	8903572 249 66476 68614 38.282060274832 38.945646289498 9 1 9 45 285
195	8903821 128318 548 359652 1.0000672 199.955260411871 3819 64 244774 467959864 76402029243720
196	9032139 267 66476 68614 38.282060274832 38.945646289498 9 130 782 3896 2145752
200	9032406 249 66476 68614 38.282060274832 38.945646289498 9 1 9 45 285
205	9032655 224728 812 359699 1.0100672 199.991077331867 7604 0 144 243784 15657240
206	9257383 892 864 1435 1.0102036 1.019769745439 38 0 16 295 3055
208	9258275 2351402 0 359707 0 199.991523150048 81364 0 7 209554 792402
209	11609677 678174 0 359705 0 199.991373150048 23454 0 2 23374 46670
211	12287851 251 26087 28683 14.277237170579 15.06641878267 9 1 9 45 285
212	12288102 120481 805 359697 1.0100672 199.991075331867 3793 1 3793 7195321 18196966809
213	12408583 269 26087 28683 14.277237170579 15.06641878267 9 108 716 3588 1826840
214	12408852 127445 805 359697 1.0100672 199.991075331867 3793 64 243068 461608238 74824482801228
218	12536297 120481 805 359697 1.0100672 199.991075331867 3793 1 3793 7195321 18196966809
223	12656778 226256 813 359664 1.0100672 199.965262411871 7656 0 144 245556 15789480
224	12883034 943 865 1486 1.0102036 1.02104556362 40 0 18 356 4272
226	12883977 2378112 0 359672 0 199.965668230052 81742 0 7 210480 795812
227	15262089 684642 0 359670 0 199.965558230052 23542 0 2 23468 46864
229	15946731 249 66430 68570 38.272060274832 38.935646289498 9 1 9 45 285
230	15946980 121312 806 359662 1.0100672 199.965260411871 3819 1 3819 7294290 18573693770
231	16068292 267 66430 68570 38.272060274832 38.935646289498 9 130 782 3896 2145752
232	16068559 128329 806 359662 1.0100672 199.965260411871 3819 64 244774 467959864 76402029243720
236	16196888 121312 806 359662 1.0100672 199.965260411871 3819 1 3819 7294290 18573693770
241	16318200 10 0 0 0 0 1 1 1 1 1
244	16318210 271 549 67862 1.0000672 38.57916775313 10 1 10 55 385
245	16318481 301 1449 67739 1.0200672 38.53879655313 11 1 11 66 506
246	16318782 289 549 67862 1.0000672 38.57916775313 10 64 864 4252 2470496
247	16319071 320 1449 67739 1.0200672 38.53879655313 11 64 982 5102 3290036
251	16319391 301 1449 67739 1.0200672 38.53879655313 11 1 11 66 506
256	16319692 56 17937 17941 10.140899140874 10.140967940874 2 0 1 1 1
258	16319748 354 550 67746 1.0000672 38.53893095313 13 1 13 91 819
259	16320102 352 1451 67855 1.0200672 38.57904935313 13 1 13 91 819
260	16320454 376 550 67746 1.0000672 38.53893095313 13 64 1110 6828 4946600
261	16320830 374 1451 67855 1.0200672 38.57904935313 13 64 1056 6658 4643844
265	16321204 352 1451 67855 1.0200672 38.57904935313 13 1 13 91 819
268	16321556 28 18044 18044 10.180977540874 10.180977540874 1 1 1 1 1
270	16321584 75 132 132 0.233447027066 0.233447027066 3 1 1 3 3
271	16321659 50 87 3639 0.156140310969 2.528305054092 2 1 1 2 2
275	16321709 55 27609 67790 14.605450715205 38.55893095313 2 2 2 4 8
280	16321764 56 26982 67129 14.462335020736 38.416493339983 2 1 1 2 2
281	16321820 55 27024 67176 14.463198056003 38.41741637746 2 1 1 2 2
284	16321875 50 198 198 0.293585502868 0.293585502868 2 1 1 2 2
288	16321925 112 26253 67318 14.327605170579 38.448728758164 4 1 1 4 4
293	16322037 56 26762 66973 14.430516150202 38.384794465029 2 1 1 2 2
294	16322093 56 26775 66998 14.431319185469 38.385577502506 2 1 1 2 2
297	16322149 157 191 63925 0.289443216007 37.060650227091 6 1 1 6 6
298	16322306 56 26068 66395 14.276786704382 38.271576207562 2 1 1 2 2
299	16322362 632 26940 355144 14.461943748327 197.417137893971 22 1 1 22 22
302	16322994 56 26508 66745 14.399087905296 38.353746219018 2 1 1 2 2
303	16323050 56 27778 67970 14.666187423523 38.619754065722 2 1 1 2 2
304	16323106 112 26509 66748 14.399087905296 38.353746219018 4 1 1 4 4
305	16323218 112 26510 66749 14.399087905296 38.353746219018 4 1 1 4 4
308	16323330 112 26917 67594 14.461270901092 38.497545692011 4 1 1 4 4
309	16323442 112 26939 67486 14.461943748327 38.478058838579 4 1 1 4 4
310	16323554 51 254 3982 0.419663425534 2.746018912556 2 1 1 2 2
323	16323605 75 145 145 0.234158752695 0.234158752695 3 1 1 3 3
324	16323680 50 120 120 0.216189795476 0.216189795476 2 1 1 2 2
