                                                                
version 2
run MCoA_ALL-0-20150323-08:24:32-5284
attr configname MCoA_ALL
attr datetime 20150323-08:24:32
attr experiment MCoA_ALL
attr inifile VoIPMCoACN.ini
attr iterationvars ""
attr iterationvars2 $repetition=0
attr measurement ""
attr network VoIPMCoAMulti
attr processid 5284
attr repetition 0
attr replication #0
attr resultdir results
attr runnumber 0
attr seedset 0

vector 0  VoIPMCoAMulti.Ra.networkLayer.ipv6  IPv6Active_Event  ETV
vector 51  VoIPMCoAMulti.CN[0].networkLayer.ipv6  IPv6Active_Event  ETV
vector 76  VoIPMCoAMulti.HA.networkLayer.ipv6  IPv6Active_Event  ETV
vector 133  VoIPMCoAMulti.MN[0].networkLayer.ipv6  IPv6Active_Event  ETV
vector 156  VoIPMCoAMulti.MN[1].networkLayer.ipv6  IPv6Active_Event  ETV
vector 162  VoIPMCoAMulti.R1.networkLayer.ipv6  IPv6Active_Event  ETV
vector 241  VoIPMCoAMulti.Rb.networkLayer.ipv6  IPv6Active_Event  ETV
vector 109  VoIPMCoAMulti.AP_HA.wlan.mac  RadioState  ETV
attr enum  "IDLE=0, RECV=1, SLEEP=3, TRANSMIT=2"
attr enumname  RadioState
vector 108  VoIPMCoAMulti.AP_HA.wlan.mac  State  ETV
attr enum  "BACKOFF=3, DEFER=1, IDLE=0, RECEIVE=8, WAITACK=4, WAITBROADCAST=5, WAITCTS=6, WAITDIFS=2, WAITSIFS=7"
attr enumname  Ieee80211Mac
vector 137  VoIPMCoAMulti.MN[0].wlan[0].mac  RadioState  ETV
attr enum  "IDLE=0, RECV=1, SLEEP=3, TRANSMIT=2"
attr enumname  RadioState
vector 136  VoIPMCoAMulti.MN[0].wlan[0].mac  State  ETV
attr enum  "BACKOFF=3, DEFER=1, IDLE=0, RECEIVE=8, WAITACK=4, WAITBROADCAST=5, WAITCTS=6, WAITDIFS=2, WAITSIFS=7"
attr enumname  Ieee80211Mac
vector 142  VoIPMCoAMulti.MN[0].wlan[1].mac  RadioState  ETV
attr enum  "IDLE=0, RECV=1, SLEEP=3, TRANSMIT=2"
attr enumname  RadioState
vector 141  VoIPMCoAMulti.MN[0].wlan[1].mac  State  ETV
attr enum  "BACKOFF=3, DEFER=1, IDLE=0, RECEIVE=8, WAITACK=4, WAITBROADCAST=5, WAITCTS=6, WAITDIFS=2, WAITSIFS=7"
attr enumname  Ieee80211Mac
vector 147  VoIPMCoAMulti.MN[0].wlan[2].mac  RadioState  ETV
attr enum  "IDLE=0, RECV=1, SLEEP=3, TRANSMIT=2"
attr enumname  RadioState
vector 146  VoIPMCoAMulti.MN[0].wlan[2].mac  State  ETV
attr enum  "BACKOFF=3, DEFER=1, IDLE=0, RECEIVE=8, WAITACK=4, WAITBROADCAST=5, WAITCTS=6, WAITDIFS=2, WAITSIFS=7"
attr enumname  Ieee80211Mac
vector 160  VoIPMCoAMulti.MN[1].wlan[0].mac  RadioState  ETV
attr enum  "IDLE=0, RECV=1, SLEEP=3, TRANSMIT=2"
attr enumname  RadioState
vector 159  VoIPMCoAMulti.MN[1].wlan[0].mac  State  ETV
attr enum  "BACKOFF=3, DEFER=1, IDLE=0, RECEIVE=8, WAITACK=4, WAITBROADCAST=5, WAITCTS=6, WAITDIFS=2, WAITSIFS=7"
attr enumname  Ieee80211Mac
vector 209  VoIPMCoAMulti.AP_1.wlan.mac  RadioState  ETV
attr enum  "IDLE=0, RECV=1, SLEEP=3, TRANSMIT=2"
attr enumname  RadioState
vector 208  VoIPMCoAMulti.AP_1.wlan.mac  State  ETV
attr enum  "BACKOFF=3, DEFER=1, IDLE=0, RECEIVE=8, WAITACK=4, WAITBROADCAST=5, WAITCTS=6, WAITDIFS=2, WAITSIFS=7"
attr enumname  Ieee80211Mac
vector 227  VoIPMCoAMulti.AP_2.wlan.mac  RadioState  ETV
attr enum  "IDLE=0, RECV=1, SLEEP=3, TRANSMIT=2"
attr enumname  RadioState
vector 226  VoIPMCoAMulti.AP_2.wlan.mac  State  ETV
attr enum  "BACKOFF=3, DEFER=1, IDLE=0, RECEIVE=8, WAITACK=4, WAITBROADCAST=5, WAITCTS=6, WAITDIFS=2, WAITSIFS=7"
attr enumname  Ieee80211Mac
vector 324  VoIPMCoAMulti.Rb.networkLayer.neighbourDiscovery  "Starting DAD"  ETV
vector 191  VoIPMCoAMulti.R1.eth[2].queue  "queue length"  ETV
vector 177  VoIPMCoAMulti.R1.eth[1].queue  "queue length"  ETV
vector 91  VoIPMCoAMulti.HA.eth[1].queue  "queue length"  ETV
vector 323  VoIPMCoAMulti.R1.networkLayer.neighbourDiscovery  "Starting DAD"  ETV
vector 284  VoIPMCoAMulti.HA.networkLayer.neighbourDiscovery  "Starting DAD"  ETV
vector 270  VoIPMCoAMulti.Ra.networkLayer.neighbourDiscovery  "Starting DAD"  ETV
vector 310  VoIPMCoAMulti.MN[1].networkLayer.neighbourDiscovery  "Starting DAD"  ETV
vector 271  VoIPMCoAMulti.CN[0].networkLayer.neighbourDiscovery  "Starting DAD"  ETV
vector 297  VoIPMCoAMulti.MN[0].networkLayer.neighbourDiscovery  "Starting DAD"  ETV
vector 3  VoIPMCoAMulti.Ra.eth[0].mac  framesSent  ETV
vector 5  VoIPMCoAMulti.Ra.eth[0].mac  bytesSent  ETV
vector 17  VoIPMCoAMulti.Ra.eth[1].mac  framesSent  ETV
vector 19  VoIPMCoAMulti.Ra.eth[1].mac  bytesSent  ETV
vector 31  VoIPMCoAMulti.Ra.eth[2].mac  framesSent  ETV
vector 33  VoIPMCoAMulti.Ra.eth[2].mac  bytesSent  ETV
vector 54  VoIPMCoAMulti.CN[0].eth[0].mac  framesSent  ETV
vector 56  VoIPMCoAMulti.CN[0].eth[0].mac  bytesSent  ETV
vector 79  VoIPMCoAMulti.HA.eth[0].mac  framesSent  ETV
vector 81  VoIPMCoAMulti.HA.eth[0].mac  bytesSent  ETV
vector 93  VoIPMCoAMulti.HA.eth[1].mac  framesSent  ETV
vector 95  VoIPMCoAMulti.HA.eth[1].mac  bytesSent  ETV
vector 165  VoIPMCoAMulti.R1.eth[0].mac  framesSent  ETV
vector 167  VoIPMCoAMulti.R1.eth[0].mac  bytesSent  ETV
vector 179  VoIPMCoAMulti.R1.eth[1].mac  framesSent  ETV
vector 181  VoIPMCoAMulti.R1.eth[1].mac  bytesSent  ETV
vector 193  VoIPMCoAMulti.R1.eth[2].mac  framesSent  ETV
vector 195  VoIPMCoAMulti.R1.eth[2].mac  bytesSent  ETV
vector 244  VoIPMCoAMulti.Rb.eth[0].mac  framesSent  ETV
vector 246  VoIPMCoAMulti.Rb.eth[0].mac  bytesSent  ETV
vector 258  VoIPMCoAMulti.Rb.eth[1].mac  framesSent  ETV
vector 260  VoIPMCoAMulti.Rb.eth[1].mac  bytesSent  ETV
vector 80  VoIPMCoAMulti.HA.eth[0].mac  framesReceivedOK  ETV
vector 82  VoIPMCoAMulti.HA.eth[0].mac  bytesReceivedOK  ETV
vector 86  VoIPMCoAMulti.HA.eth[0].mac  framesPassedToHL  ETV
vector 166  VoIPMCoAMulti.R1.eth[0].mac  framesReceivedOK  ETV
vector 168  VoIPMCoAMulti.R1.eth[0].mac  bytesReceivedOK  ETV
vector 172  VoIPMCoAMulti.R1.eth[0].mac  framesPassedToHL  ETV
vector 4  VoIPMCoAMulti.Ra.eth[0].mac  framesReceivedOK  ETV
vector 6  VoIPMCoAMulti.Ra.eth[0].mac  bytesReceivedOK  ETV
vector 10  VoIPMCoAMulti.Ra.eth[0].mac  framesPassedToHL  ETV
vector 112  VoIPMCoAMulti.AP_HA.eth[0]  framesReceivedOK  ETV
vector 114  VoIPMCoAMulti.AP_HA.eth[0]  bytesReceivedOK  ETV
vector 118  VoIPMCoAMulti.AP_HA.eth[0]  framesPassedToHL  ETV
vector 18  VoIPMCoAMulti.Ra.eth[1].mac  framesReceivedOK  ETV
vector 20  VoIPMCoAMulti.Ra.eth[1].mac  bytesReceivedOK  ETV
vector 24  VoIPMCoAMulti.Ra.eth[1].mac  framesPassedToHL  ETV
vector 212  VoIPMCoAMulti.AP_1.eth[0]  framesReceivedOK  ETV
vector 214  VoIPMCoAMulti.AP_1.eth[0]  bytesReceivedOK  ETV
vector 218  VoIPMCoAMulti.AP_1.eth[0]  framesPassedToHL  ETV
vector 230  VoIPMCoAMulti.AP_2.eth[0]  framesReceivedOK  ETV
vector 232  VoIPMCoAMulti.AP_2.eth[0]  bytesReceivedOK  ETV
vector 236  VoIPMCoAMulti.AP_2.eth[0]  framesPassedToHL  ETV
vector 105  VoIPMCoAMulti.AP_HA.relayUnit  "buffer level"  ETV
vector 205  VoIPMCoAMulti.AP_1.relayUnit  "buffer level"  ETV
vector 223  VoIPMCoAMulti.AP_2.relayUnit  "buffer level"  ETV
vector 106  VoIPMCoAMulti.AP_HA.wlan.mgmt  "queue length"  ETV
vector 206  VoIPMCoAMulti.AP_1.wlan.mgmt  "queue length"  ETV
vector 224  VoIPMCoAMulti.AP_2.wlan.mgmt  "queue length"  ETV
vector 245  VoIPMCoAMulti.Rb.eth[0].mac  framesReceivedOK  ETV
vector 247  VoIPMCoAMulti.Rb.eth[0].mac  bytesReceivedOK  ETV
vector 251  VoIPMCoAMulti.Rb.eth[0].mac  framesPassedToHL  ETV
vector 32  VoIPMCoAMulti.Ra.eth[2].mac  framesReceivedOK  ETV
vector 34  VoIPMCoAMulti.Ra.eth[2].mac  bytesReceivedOK  ETV
vector 38  VoIPMCoAMulti.Ra.eth[2].mac  framesPassedToHL  ETV
vector 259  VoIPMCoAMulti.Rb.eth[1].mac  framesReceivedOK  ETV
vector 261  VoIPMCoAMulti.Rb.eth[1].mac  bytesReceivedOK  ETV
vector 265  VoIPMCoAMulti.Rb.eth[1].mac  framesPassedToHL  ETV
vector 55  VoIPMCoAMulti.CN[0].eth[0].mac  framesReceivedOK  ETV
vector 57  VoIPMCoAMulti.CN[0].eth[0].mac  bytesReceivedOK  ETV
vector 61  VoIPMCoAMulti.CN[0].eth[0].mac  framesPassedToHL  ETV
vector 161  VoIPMCoAMulti.MN[1].wlan[0].radio  "MAC loss rate"  ETV
vector 111  VoIPMCoAMulti.AP_HA.eth[0]  framesSent  ETV
vector 113  VoIPMCoAMulti.AP_HA.eth[0]  bytesSent  ETV
vector 94  VoIPMCoAMulti.HA.eth[1].mac  framesReceivedOK  ETV
vector 96  VoIPMCoAMulti.HA.eth[1].mac  bytesReceivedOK  ETV
vector 100  VoIPMCoAMulti.HA.eth[1].mac  framesPassedToHL  ETV
vector 138  VoIPMCoAMulti.MN[0].wlan[0].radio  "MAC loss rate"  ETV
vector 77  VoIPMCoAMulti.HA.eth[0].queue  "queue length"  ETV
vector 29  VoIPMCoAMulti.Ra.eth[2].queue  "queue length"  ETV
vector 256  VoIPMCoAMulti.Rb.eth[1].queue  "queue length"  ETV
vector 52  VoIPMCoAMulti.CN[0].eth[0].queue  "queue length"  ETV
vector 242  VoIPMCoAMulti.Rb.eth[0].queue  "queue length"  ETV
vector 1  VoIPMCoAMulti.Ra.eth[0].queue  "queue length"  ETV
vector 110  VoIPMCoAMulti.AP_HA.wlan.radio  "MAC loss rate"  ETV
0	8485 8 0 0 0 0 1 1 1 1 1
1	8493 52 18270 18274 10.261443203892 10.261512003892 2 0 1 1 1
3	8545 1062 530 425443 1.0000672 238.127863646438 40 1 40 820 22140
4	9607 948 792 53813 1.0100672 29.393452645196 36 1 36 666 16206
5	10555 1135 530 425443 1.0000672 238.127863646438 40 64 2628 53874 95732740
6	11690 1013 792 53813 1.0100672 29.393452645196 36 64 2370 43750 70069972
10	12703 984 792 53813 1.0100672 29.393452645196 36 1 36 666 16206
17	13687 19 531 531 1.0000672 1.0000672 1 1 1 1 1
18	13706 19 794 794 1.0100672 1.0100672 1 1 1 1 1
19	13725 20 531 531 1.0000672 1.0000672 1 64 64 64 4096
20	13745 20 794 794 1.0100672 1.0100672 1 64 64 64 4096
24	13765 19 794 794 1.0100672 1.0100672 1 1 1 1 1
29	13784 54 17803 17807 10.080696003892 10.080764803892 2 0 1 1 1
31	13838 984 532 53820 1.0000672 29.393521445196 36 1 36 666 16206
32	14822 1013 1425 54898 1.0200672 29.973727845196 37 1 37 703 17575
33	15835 1049 532 53820 1.0000672 29.393521445196 36 64 2370 43750 70069972
34	16884 1080 1425 54898 1.0200672 29.973727845196 37 64 2436 46182 76002260
38	17964 1013 1425 54898 1.0200672 29.973727845196 37 1 37 703 17575
51	18977 9 0 0 0 0 1 1 1 1 1
52	18986 54 18005 18009 10.161036803892 10.161105603892 2 0 1 1 1
54	19040 1090 533 54827 1.0000672 29.933659045196 40 1 40 820 22140
55	20130 1037 1427 53894 1.0200672 29.433590245196 38 1 38 741 19019
56	21167 1163 533 54827 1.0000672 29.933659045196 40 64 2628 53690 95184740
57	22330 1106 1427 53894 1.0200672 29.433590245196 38 64 2498 48566 81902164
61	23436 1037 1427 53894 1.0200672 29.433590245196 38 1 38 741 19019
76	24473 37 0 61191 0 35 3 1 2 4 6
77	24510 54 17666 17670 10.030492803892 10.030561603892 2 0 1 1 1
79	24564 984 534 53788 1.0000672 29.383452645196 36 1 36 666 16206
80	25548 1102 790 425445 1.0100672 238.137863646438 40 1 40 820 22140
81	26650 1049 534 53788 1.0000672 29.383452645196 36 64 2370 43750 70069972
82	27699 1175 790 425445 1.0100672 238.137863646438 40 64 2628 53874 95732740
86	28874 1102 790 425445 1.0100672 238.137863646438 40 1 40 820 22140
91	29976 920 82 775 0.125145110627 1.0014112 42 0 21 441 6181
93	30896 156501 535 453672 1.0000672 254.082677303301 5053 1 5053 12768931 43018528539
94	187397 1042 7747 55035 4.738146751451 30.00478585298 38 1 38 741 19019
95	188439 165981 535 453672 1.0000672 254.082677303301 5053 64 323458 817517094 1.7631095426846e+14
96	354420 1104 7747 55035 4.738146751451 30.00478585298 38 40 1792 34488 41643840
100	355524 1080 7747 55035 4.738146751451 30.00478585298 38 1 38 741 19019
105	356604 302155 800 453622 1.0100672 254.052790347137 10180 0 66 325186 20786308
106	658759 942 853 1467 1.0102036 1.02108556362 40 0 18 356 4272
108	659701 3125636 0 453682 0 254.084725173725 106909 0 7 275018 1040726
109	3785337 904050 0 453630 0 254.053086165318 30946 0 2 30768 61360
110	4689387 28 34476 34476 18.183411305084 18.183411305084 1 0 0 0 0
111	4689415 1080 7702 55017 4.728146751451 29.99478585298 38 1 38 741 19019
112	4690495 161531 793 453620 1.0100672 254.052788347137 5052 1 5052 12763878 42992995730
113	4852026 1142 7702 55017 4.728146751451 29.99478585298 38 40 1792 34488 41643840
114	4853168 171009 793 453620 1.0100672 254.052788347137 5052 64 323394 817193636 1.762063291907e+14
118	5024177 161531 793 453620 1.0100672 254.052788347137 5052 1 5052 12763878 42992995730
133	5185708 10 0 0 0 0 1 1 1 1 1
136	5185718 1343676 0 453632 0 254.053086532847 45928 0 7 3156 12604
137	6529394 891426 0 453631 0 254.053086532847 30460 0 2 15386 15702
138	7420820 4393 7907 451539 4.801726843408 252.904669611529 150 0 0 0 0
141	7425213 405264 0 453658 0 254.071689811359 14004 0 5 36000 136000
142	7830477 115554 0 453656 0 254.071599811359 4004 0 2 4000 8000
146	7946031 412680 0 453300 0 253.864137942798 14060 0 5 36144 136544
147	8358711 117960 0 453298 0 253.864087942798 4020 0 2 4016 8032
156	8476671 10 0 0 0 0 1 1 1 1 1
159	8476681 1352768 0 453637 0 254.053086596814 46270 0 7 378 1446
160	9829449 895682 0 453636 0 254.053086596814 30624 0 2 15328 15364
161	10725131 4445 6184 450860 3.976472351154 252.536131496455 152 0 0 0 0
162	10729576 70 0 76059 0 45 5 1 2 7 11
165	10729646 20 536 536 1.0000672 1.0000672 1 1 1 1 1
166	10729666 20 791 791 1.0100672 1.0100672 1 1 1 1 1
167	10729686 21 536 536 1.0000672 1.0000672 1 64 64 64 4096
168	10729707 21 791 791 1.0100672 1.0100672 1 64 64 64 4096
172	10729728 20 791 791 1.0100672 1.0100672 1 1 1 1 1
177	10729748 867 79 755 0.113531359228 1.0012768 38 0 19 361 4579
179	10730615 155557 537 453665 1.0000672 254.07455708215 4862 1 4862 11821953 38322830975
181	10886172 164654 537 453665 1.0000672 254.07455708215 4862 64 311168 756604992 1.569703156736e+14
191	11050826 914 68 768 0.084193305931 1.001344 40 0 20 400 5340
193	11051740 156042 538 453591 1.0000672 254.031847853003 4877 1 4877 11895003 38678584755
195	11207782 165169 538 453591 1.0000672 254.031847853003 4877 64 312128 761280192 1.5842748315648e+14
205	11372951 289035 802 453676 1.0100672 254.08455908215 9724 0 64 311168 19914752
206	11661986 845 854 1436 1.0102036 1.020133927258 36 0 16 292 3230
208	11662831 3005810 0 453680 0 254.08460908215 103380 0 5 266235 1006243
209	14668641 861588 0 453680 0 254.08460908215 29612 0 2 29610 59220
212	15530229 155566 795 453674 1.0100672 254.08455708215 4862 1 4862 11821953 38322830975
214	15685795 164663 795 453674 1.0100672 254.08455708215 4862 64 311168 756604992 1.569703156736e+14
218	15850458 155566 795 453674 1.0100672 254.08455708215 4862 1 4862 11821953 38322830975
223	16006024 289930 803 453595 1.0100672 254.041849853003 9754 0 64 312128 19976192
224	16295954 894 855 1495 1.0102036 1.022069745439 38 0 17 319 3607
226	16296848 3033520 0 453650 0 254.062825096911 103630 0 5 266824 1008400
227	19330368 868526 0 453648 0 254.062655096911 29674 0 2 29672 59344
230	20198894 156051 796 453593 1.0100672 254.041847853003 4877 1 4877 11895003 38678584755
232	20354945 165178 796 453593 1.0100672 254.041847853003 4877 64 312128 761280192 1.5842748315648e+14
236	20520123 156051 796 453593 1.0100672 254.041847853003 4877 1 4877 11895003 38678584755
241	20676174 10 0 0 0 0 1 1 1 1 1
242	20676184 56 18137 18141 10.221240003892 10.221308803892 2 0 1 1 1
244	20676240 1049 539 54845 1.0000672 29.953727845196 37 1 37 703 17575
245	20677289 1021 1424 53841 1.0200672 29.413521445196 36 1 36 666 16206
246	20678310 1116 539 54845 1.0000672 29.953727845196 37 64 2436 46182 76002260
247	20679426 1086 1424 53841 1.0200672 29.413521445196 36 64 2370 43750 70069972
251	20680512 1021 1424 53841 1.0200672 29.413521445196 36 1 36 666 16206
256	20681533 56 17961 17965 10.140899203892 10.140968003892 2 0 1 1 1
258	20681589 1074 540 53848 1.0000672 29.413590245196 38 1 38 741 19019
259	20682663 1131 1426 54838 1.0200672 29.953659045196 40 1 40 820 22140
260	20683794 1143 540 53848 1.0000672 29.413590245196 38 64 2498 48566 81902164
261	20684937 1204 1426 54838 1.0200672 29.953659045196 40 64 2628 53690 95184740
265	20686141 1131 1426 54838 1.0200672 29.953659045196 40 1 40 820 22140
270	20687272 75 180 180 0.287146546295 0.287146546295 3 1 1 3 3
271	20687347 51 241 2882 0.411262702755 2.015981472175 2 1 1 2 2
284	20687398 48 151 151 0.26102617532 0.26102617532 2 1 1 2 2
297	20687446 101 285 5422 0.491447337158 3.598682820015 4 1 1 4 4
310	20687547 51 193 3855 0.289443216007 2.741830713148 2 1 1 2 2
323	20687598 72 94 94 0.156143244146 0.156143244146 3 1 1 3 3
324	20687670 48 26 26 0.035482327127 0.035482327127 2 1 1 2 2
