file 34536759 1427208391                                        
version 2
run MCoA_ALL-0-20150324-15:46:21-9777
attr configname MCoA_ALL
attr datetime 20150324-15:46:21
attr experiment MCoA_ALL
attr inifile VoIPMCoACN.ini
attr iterationvars ""
attr iterationvars2 $repetition=0
attr measurement ""
attr network VoIPMCoAMulti
attr processid 9777
attr repetition 0
attr replication #0
attr resultdir results
attr runnumber 0
attr seedset 0

vector 0  VoIPMCoAMulti.Ra.networkLayer.ipv6  IPv6Active_Event  ETV
vector 51  VoIPMCoAMulti.CN[0].networkLayer.ipv6  IPv6Active_Event  ETV
vector 76  VoIPMCoAMulti.HA.networkLayer.ipv6  IPv6Active_Event  ETV
vector 133  VoIPMCoAMulti.MN[0].networkLayer.ipv6  IPv6Active_Event  ETV
vector 156  VoIPMCoAMulti.MN[1].networkLayer.ipv6  IPv6Active_Event  ETV
vector 162  VoIPMCoAMulti.R1.networkLayer.ipv6  IPv6Active_Event  ETV
vector 241  VoIPMCoAMulti.Rb.networkLayer.ipv6  IPv6Active_Event  ETV
vector 109  VoIPMCoAMulti.AP_HA.wlan.mac  RadioState  ETV
attr enum  "IDLE=0, RECV=1, SLEEP=3, TRANSMIT=2"
attr enumname  RadioState
vector 108  VoIPMCoAMulti.AP_HA.wlan.mac  State  ETV
attr enum  "BACKOFF=3, DEFER=1, IDLE=0, RECEIVE=8, WAITACK=4, WAITBROADCAST=5, WAITCTS=6, WAITDIFS=2, WAITSIFS=7"
attr enumname  Ieee80211Mac
vector 137  VoIPMCoAMulti.MN[0].wlan[0].mac  RadioState  ETV
attr enum  "IDLE=0, RECV=1, SLEEP=3, TRANSMIT=2"
attr enumname  RadioState
vector 136  VoIPMCoAMulti.MN[0].wlan[0].mac  State  ETV
attr enum  "BACKOFF=3, DEFER=1, IDLE=0, RECEIVE=8, WAITACK=4, WAITBROADCAST=5, WAITCTS=6, WAITDIFS=2, WAITSIFS=7"
attr enumname  Ieee80211Mac
vector 142  VoIPMCoAMulti.MN[0].wlan[1].mac  RadioState  ETV
attr enum  "IDLE=0, RECV=1, SLEEP=3, TRANSMIT=2"
attr enumname  RadioState
vector 141  VoIPMCoAMulti.MN[0].wlan[1].mac  State  ETV
attr enum  "BACKOFF=3, DEFER=1, IDLE=0, RECEIVE=8, WAITACK=4, WAITBROADCAST=5, WAITCTS=6, WAITDIFS=2, WAITSIFS=7"
attr enumname  Ieee80211Mac
vector 147  VoIPMCoAMulti.MN[0].wlan[2].mac  RadioState  ETV
attr enum  "IDLE=0, RECV=1, SLEEP=3, TRANSMIT=2"
attr enumname  RadioState
vector 146  VoIPMCoAMulti.MN[0].wlan[2].mac  State  ETV
attr enum  "BACKOFF=3, DEFER=1, IDLE=0, RECEIVE=8, WAITACK=4, WAITBROADCAST=5, WAITCTS=6, WAITDIFS=2, WAITSIFS=7"
attr enumname  Ieee80211Mac
vector 160  VoIPMCoAMulti.MN[1].wlan[0].mac  RadioState  ETV
attr enum  "IDLE=0, RECV=1, SLEEP=3, TRANSMIT=2"
attr enumname  RadioState
vector 159  VoIPMCoAMulti.MN[1].wlan[0].mac  State  ETV
attr enum  "BACKOFF=3, DEFER=1, IDLE=0, RECEIVE=8, WAITACK=4, WAITBROADCAST=5, WAITCTS=6, WAITDIFS=2, WAITSIFS=7"
attr enumname  Ieee80211Mac
vector 209  VoIPMCoAMulti.AP_1.wlan.mac  RadioState  ETV
attr enum  "IDLE=0, RECV=1, SLEEP=3, TRANSMIT=2"
attr enumname  RadioState
vector 208  VoIPMCoAMulti.AP_1.wlan.mac  State  ETV
attr enum  "BACKOFF=3, DEFER=1, IDLE=0, RECEIVE=8, WAITACK=4, WAITBROADCAST=5, WAITCTS=6, WAITDIFS=2, WAITSIFS=7"
attr enumname  Ieee80211Mac
vector 227  VoIPMCoAMulti.AP_2.wlan.mac  RadioState  ETV
attr enum  "IDLE=0, RECV=1, SLEEP=3, TRANSMIT=2"
attr enumname  RadioState
vector 226  VoIPMCoAMulti.AP_2.wlan.mac  State  ETV
attr enum  "BACKOFF=3, DEFER=1, IDLE=0, RECEIVE=8, WAITACK=4, WAITBROADCAST=5, WAITCTS=6, WAITDIFS=2, WAITSIFS=7"
attr enumname  Ieee80211Mac
vector 177  VoIPMCoAMulti.R1.eth[1].queue  "queue length"  ETV
vector 91  VoIPMCoAMulti.HA.eth[1].queue  "queue length"  ETV
vector 191  VoIPMCoAMulti.R1.eth[2].queue  "queue length"  ETV
vector 271  VoIPMCoAMulti.CN[0].networkLayer.neighbourDiscovery  "Starting DAD"  ETV
vector 324  VoIPMCoAMulti.Rb.networkLayer.neighbourDiscovery  "Starting DAD"  ETV
vector 270  VoIPMCoAMulti.Ra.networkLayer.neighbourDiscovery  "Starting DAD"  ETV
vector 323  VoIPMCoAMulti.R1.networkLayer.neighbourDiscovery  "Starting DAD"  ETV
vector 297  VoIPMCoAMulti.MN[0].networkLayer.neighbourDiscovery  "Starting DAD"  ETV
vector 284  VoIPMCoAMulti.HA.networkLayer.neighbourDiscovery  "Starting DAD"  ETV
vector 310  VoIPMCoAMulti.MN[1].networkLayer.neighbourDiscovery  "Starting DAD"  ETV
vector 3  VoIPMCoAMulti.Ra.eth[0].mac  framesSent  ETV
vector 5  VoIPMCoAMulti.Ra.eth[0].mac  bytesSent  ETV
vector 17  VoIPMCoAMulti.Ra.eth[1].mac  framesSent  ETV
vector 19  VoIPMCoAMulti.Ra.eth[1].mac  bytesSent  ETV
vector 31  VoIPMCoAMulti.Ra.eth[2].mac  framesSent  ETV
vector 33  VoIPMCoAMulti.Ra.eth[2].mac  bytesSent  ETV
vector 54  VoIPMCoAMulti.CN[0].eth[0].mac  framesSent  ETV
vector 56  VoIPMCoAMulti.CN[0].eth[0].mac  bytesSent  ETV
vector 79  VoIPMCoAMulti.HA.eth[0].mac  framesSent  ETV
vector 81  VoIPMCoAMulti.HA.eth[0].mac  bytesSent  ETV
vector 93  VoIPMCoAMulti.HA.eth[1].mac  framesSent  ETV
vector 95  VoIPMCoAMulti.HA.eth[1].mac  bytesSent  ETV
vector 165  VoIPMCoAMulti.R1.eth[0].mac  framesSent  ETV
vector 167  VoIPMCoAMulti.R1.eth[0].mac  bytesSent  ETV
vector 179  VoIPMCoAMulti.R1.eth[1].mac  framesSent  ETV
vector 181  VoIPMCoAMulti.R1.eth[1].mac  bytesSent  ETV
vector 193  VoIPMCoAMulti.R1.eth[2].mac  framesSent  ETV
vector 195  VoIPMCoAMulti.R1.eth[2].mac  bytesSent  ETV
vector 244  VoIPMCoAMulti.Rb.eth[0].mac  framesSent  ETV
vector 246  VoIPMCoAMulti.Rb.eth[0].mac  bytesSent  ETV
vector 258  VoIPMCoAMulti.Rb.eth[1].mac  framesSent  ETV
vector 260  VoIPMCoAMulti.Rb.eth[1].mac  bytesSent  ETV
vector 80  VoIPMCoAMulti.HA.eth[0].mac  framesReceivedOK  ETV
vector 82  VoIPMCoAMulti.HA.eth[0].mac  bytesReceivedOK  ETV
vector 86  VoIPMCoAMulti.HA.eth[0].mac  framesPassedToHL  ETV
vector 166  VoIPMCoAMulti.R1.eth[0].mac  framesReceivedOK  ETV
vector 168  VoIPMCoAMulti.R1.eth[0].mac  bytesReceivedOK  ETV
vector 172  VoIPMCoAMulti.R1.eth[0].mac  framesPassedToHL  ETV
vector 4  VoIPMCoAMulti.Ra.eth[0].mac  framesReceivedOK  ETV
vector 6  VoIPMCoAMulti.Ra.eth[0].mac  bytesReceivedOK  ETV
vector 10  VoIPMCoAMulti.Ra.eth[0].mac  framesPassedToHL  ETV
vector 112  VoIPMCoAMulti.AP_HA.eth[0]  framesReceivedOK  ETV
vector 114  VoIPMCoAMulti.AP_HA.eth[0]  bytesReceivedOK  ETV
vector 118  VoIPMCoAMulti.AP_HA.eth[0]  framesPassedToHL  ETV
vector 18  VoIPMCoAMulti.Ra.eth[1].mac  framesReceivedOK  ETV
vector 20  VoIPMCoAMulti.Ra.eth[1].mac  bytesReceivedOK  ETV
vector 24  VoIPMCoAMulti.Ra.eth[1].mac  framesPassedToHL  ETV
vector 212  VoIPMCoAMulti.AP_1.eth[0]  framesReceivedOK  ETV
vector 214  VoIPMCoAMulti.AP_1.eth[0]  bytesReceivedOK  ETV
vector 218  VoIPMCoAMulti.AP_1.eth[0]  framesPassedToHL  ETV
vector 230  VoIPMCoAMulti.AP_2.eth[0]  framesReceivedOK  ETV
vector 232  VoIPMCoAMulti.AP_2.eth[0]  bytesReceivedOK  ETV
vector 236  VoIPMCoAMulti.AP_2.eth[0]  framesPassedToHL  ETV
vector 105  VoIPMCoAMulti.AP_HA.relayUnit  "buffer level"  ETV
vector 205  VoIPMCoAMulti.AP_1.relayUnit  "buffer level"  ETV
vector 223  VoIPMCoAMulti.AP_2.relayUnit  "buffer level"  ETV
vector 106  VoIPMCoAMulti.AP_HA.wlan.mgmt  "queue length"  ETV
vector 206  VoIPMCoAMulti.AP_1.wlan.mgmt  "queue length"  ETV
vector 224  VoIPMCoAMulti.AP_2.wlan.mgmt  "queue length"  ETV
vector 245  VoIPMCoAMulti.Rb.eth[0].mac  framesReceivedOK  ETV
vector 247  VoIPMCoAMulti.Rb.eth[0].mac  bytesReceivedOK  ETV
vector 251  VoIPMCoAMulti.Rb.eth[0].mac  framesPassedToHL  ETV
vector 32  VoIPMCoAMulti.Ra.eth[2].mac  framesReceivedOK  ETV
vector 34  VoIPMCoAMulti.Ra.eth[2].mac  bytesReceivedOK  ETV
vector 38  VoIPMCoAMulti.Ra.eth[2].mac  framesPassedToHL  ETV
vector 259  VoIPMCoAMulti.Rb.eth[1].mac  framesReceivedOK  ETV
vector 261  VoIPMCoAMulti.Rb.eth[1].mac  bytesReceivedOK  ETV
vector 265  VoIPMCoAMulti.Rb.eth[1].mac  framesPassedToHL  ETV
vector 55  VoIPMCoAMulti.CN[0].eth[0].mac  framesReceivedOK  ETV
vector 57  VoIPMCoAMulti.CN[0].eth[0].mac  bytesReceivedOK  ETV
vector 61  VoIPMCoAMulti.CN[0].eth[0].mac  framesPassedToHL  ETV
vector 161  VoIPMCoAMulti.MN[1].wlan[0].radio  "MAC loss rate"  ETV
vector 138  VoIPMCoAMulti.MN[0].wlan[0].radio  "MAC loss rate"  ETV
vector 111  VoIPMCoAMulti.AP_HA.eth[0]  framesSent  ETV
vector 113  VoIPMCoAMulti.AP_HA.eth[0]  bytesSent  ETV
vector 94  VoIPMCoAMulti.HA.eth[1].mac  framesReceivedOK  ETV
vector 96  VoIPMCoAMulti.HA.eth[1].mac  bytesReceivedOK  ETV
vector 100  VoIPMCoAMulti.HA.eth[1].mac  framesPassedToHL  ETV
vector 77  VoIPMCoAMulti.HA.eth[0].queue  "queue length"  ETV
vector 29  VoIPMCoAMulti.Ra.eth[2].queue  "queue length"  ETV
vector 256  VoIPMCoAMulti.Rb.eth[1].queue  "queue length"  ETV
vector 52  VoIPMCoAMulti.CN[0].eth[0].queue  "queue length"  ETV
vector 242  VoIPMCoAMulti.Rb.eth[0].queue  "queue length"  ETV
vector 1  VoIPMCoAMulti.Ra.eth[0].queue  "queue length"  ETV
vector 143  VoIPMCoAMulti.MN[0].wlan[1].radio  "MAC loss rate"  ETV
vector 298  VoIPMCoAMulti.MN[0].networkLayer.xMobileIPv6  "BU to HA"  ETV
vector 211  VoIPMCoAMulti.AP_1.eth[0]  framesSent  ETV
vector 213  VoIPMCoAMulti.AP_1.eth[0]  bytesSent  ETV
vector 180  VoIPMCoAMulti.R1.eth[1].mac  framesReceivedOK  ETV
vector 182  VoIPMCoAMulti.R1.eth[1].mac  bytesReceivedOK  ETV
vector 186  VoIPMCoAMulti.R1.eth[1].mac  framesPassedToHL  ETV
vector 288  VoIPMCoAMulti.HA.networkLayer.xMobileIPv6  "BA to MN"  ETV
vector 302  VoIPMCoAMulti.MN[0].networkLayer.xMobileIPv6  "BA from HA"  ETV
vector 304  VoIPMCoAMulti.MN[0].networkLayer.xMobileIPv6  "HoTI to CN"  ETV
vector 305  VoIPMCoAMulti.MN[0].networkLayer.xMobileIPv6  "CoTI to CN"  ETV
vector 139  VoIPMCoAMulti.MN[0].wlan[1].mgmt  "queue length"  ETV
vector 293  VoIPMCoAMulti.HA.networkLayer.xMobileIPv6  "HoT to MN"  ETV
vector 294  VoIPMCoAMulti.HA.networkLayer.xMobileIPv6  "CoT to MN"  ETV
vector 308  VoIPMCoAMulti.MN[0].networkLayer.xMobileIPv6  "HoT from CN"  ETV
vector 309  VoIPMCoAMulti.MN[0].networkLayer.xMobileIPv6  "CoT from CN"  ETV
vector 299  VoIPMCoAMulti.MN[0].networkLayer.xMobileIPv6  "BU to CN"  ETV
vector 280  VoIPMCoAMulti.CN[0].networkLayer.xMobileIPv6  "HoT to MN"  ETV
vector 281  VoIPMCoAMulti.CN[0].networkLayer.xMobileIPv6  "CoT to MN"  ETV
vector 275  VoIPMCoAMulti.CN[0].networkLayer.xMobileIPv6  "BA to MN"  ETV
vector 303  VoIPMCoAMulti.MN[0].networkLayer.xMobileIPv6  "BA from CN"  ETV
vector 229  VoIPMCoAMulti.AP_2.eth[0]  framesSent  ETV
vector 231  VoIPMCoAMulti.AP_2.eth[0]  bytesSent  ETV
vector 148  VoIPMCoAMulti.MN[0].wlan[2].radio  "MAC loss rate"  ETV
vector 194  VoIPMCoAMulti.R1.eth[2].mac  framesReceivedOK  ETV
vector 196  VoIPMCoAMulti.R1.eth[2].mac  bytesReceivedOK  ETV
vector 200  VoIPMCoAMulti.R1.eth[2].mac  framesPassedToHL  ETV
vector 144  VoIPMCoAMulti.MN[0].wlan[2].mgmt  "queue length"  ETV
vector 110  VoIPMCoAMulti.AP_HA.wlan.radio  "MAC loss rate"  ETV
vector 210  VoIPMCoAMulti.AP_1.wlan.radio  "MAC loss rate"  ETV
0	10456 8 0 0 0 0 1 1 1 1 1
1	10464 52 18253 18257 10.261443140874 10.261511940874 2 0 1 1 1
3	10516 927 540 442372 1.0000672 240.059661981275 34 1 34 595 13685
4	11443 1357 802 442405 1.0100672 240.079793181275 50 1 50 1275 42925
5	12800 991 540 442372 1.0000672 240.059661981275 34 64 3080 51148 106864520
6	13791 1452 802 442405 1.0100672 240.079793181275 50 64 4592 103012 295642448
10	15243 1407 802 442405 1.0100672 240.079793181275 50 1 50 1275 42925
17	16650 1802 541 442776 1.0000672 240.201997167622 64 1 64 2080 89440
18	18452 909 804 442569 1.0100672 240.121373167622 32 1 32 528 11440
19	19361 1928 541 442776 1.0000672 240.201997167622 64 64 5732 167362 591928980
20	21289 971 804 442569 1.0100672 240.121373167622 32 64 3210 52550 115398372
24	22260 909 804 442569 1.0100672 240.121373167622 32 1 32 528 11440
29	23169 54 17779 17783 10.080695940874 10.080764740874 2 0 1 1 1
31	23223 1091 542 442576 1.0000672 240.121507567622 39 1 39 780 20540
32	24314 1539 1450 442769 1.0200672 240.201878767622 55 1 55 1540 56980
33	25853 1164 542 442576 1.0000672 240.121507567622 39 64 3088 57330 114089996
34	27017 1644 1450 442769 1.0200672 240.201878767622 55 64 4098 107972 283184712
38	28661 1539 1450 442769 1.0200672 240.201878767622 55 1 55 1540 56980
51	30200 9 0 0 0 0 1 1 1 1 1
52	30209 920 17994 422283 10.161036740874 229.999959558331 34 0 1 17 17
54	31129 1615 543 442652 1.0000672 240.161760367622 58 1 58 1711 66729
55	32744 1144 1452 442643 1.0200672 240.161641967622 41 1 41 861 23821
56	33888 1726 543 442652 1.0000672 240.161760367622 58 64 4290 119028 326923080
57	35614 1221 1452 442643 1.0200672 240.161641967622 41 64 3216 62648 129651040
61	36835 1144 1452 442643 1.0200672 240.161641967622 41 1 41 861 23821
76	37979 37 0 62943 0 35 3 1 2 4 6
77	38016 112 17641 421896 10.030492740874 229.907217217935 4 0 1 2 2
79	38128 1407 544 442395 1.0000672 240.069793181275 50 1 50 1275 42925
80	39535 961 800 442386 1.0100672 240.069661981275 34 1 34 595 13685
81	40496 1502 544 442395 1.0000672 240.069793181275 50 64 4592 103012 295642448
82	41998 1025 800 442386 1.0100672 240.069661981275 34 64 3080 51148 106864520
86	43023 961 800 442386 1.0100672 240.069661981275 34 1 34 595 13685
91	43984 832 71 764 0.115677423169 1.0012768 38 0 19 361 4579
93	44816 148791 545 452073 1.0000672 244.927054203466 4806 1 4806 11551221 37013962491
94	193607 742 8530 421753 5.111241259032 229.886932166431 27 1 27 378 6930
95	194349 157776 545 452073 1.0000672 244.927054203466 4806 64 307594 739323660 1.516239341227e+14
96	352125 782 8530 421753 5.111241259032 229.886932166431 27 40 1256 17392 14857728
100	352907 769 8530 421753 5.111241259032 229.886932166431 27 1 27 378 6930
105	353676 286928 810 452100 1.0100672 244.937056203466 9666 0 66 308850 19745364
106	640604 846 863 1507 1.0102036 1.022153927258 36 0 16 288 3114
108	641450 3001730 0 452178 0 244.985023900997 102710 0 7 264370 1000380
109	3643180 869908 0 452178 0 244.985023900997 29782 0 2 29600 59020
110	4513088 28 93742 93742 53.036216672405 53.036216672405 1 0 0 0 0
111	4513116 769 8491 421694 5.101241259032 229.876932166431 27 1 27 378 6930
112	4513885 153606 803 452098 1.0100672 244.937054203466 4806 1 4806 11551221 37013962491
113	4667491 809 8491 421694 5.101241259032 229.876932166431 27 40 1256 17392 14857728
114	4668300 162591 803 452098 1.0100672 244.937054203466 4806 64 307594 739323660 1.516239341227e+14
118	4830891 153606 803 452098 1.0100672 244.937054203466 4806 1 4806 11551221 37013962491
133	4984497 10 0 0 0 0 1 1 1 1 1
136	4984507 1067942 0 451847 0 244.785425823262 36566 0 7 12308 46972
137	6052449 669290 0 451842 0 244.785295823262 22896 0 2 12108 13432
138	6721739 3130 8118 428953 4.911634841796 233.28502469157 107 0 0 0 0
139	6724869 112 27706 27762 14.814942691886 14.816846712756 4 0 2 4 6
141	6724981 853888 0 452123 0 244.942664381402 29236 0 7 19174 73638
142	7578869 494358 0 452122 0 244.942664381402 16952 0 2 9544 11684
143	8073227 2156 26839 451997 14.542664994204 244.875263825727 74 0 0 0 0
144	8075383 112 69851 69901 38.504303872807 38.506107935465 4 0 2 4 6
146	8075495 461490 0 452158 0 244.967938292346 15768 0 7 33830 128178
147	8536985 165450 0 452157 0 244.967938292346 5672 0 2 4708 8456
148	8702435 260 69518 450358 38.422754735463 244.017820775932 9 0 0 0 0
156	8702695 10 0 0 0 0 1 1 1 1 1
159	8702705 1320562 0 452176 0 244.984775605221 45188 0 7 356 1400
160	10023267 873482 0 452176 0 244.984775605221 29882 0 2 14957 14993
161	10896749 4356 6246 451476 3.976472286066 244.598198396426 149 0 0.02 0.02 0.0004
162	10901105 70 0 78645 0 45 5 1 2 7 11
165	10901175 941 546 442542 1.0000672 240.111373167622 32 1 32 528 11440
166	10902116 1866 801 442785 1.0100672 240.211997167622 64 1 64 2080 89440
167	10903982 1003 546 442542 1.0000672 240.111373167622 32 64 3210 52550 115398372
168	10904985 1992 801 442785 1.0100672 240.211997167622 64 64 5732 167362 591928980
172	10906977 1866 801 442785 1.0100672 240.211997167622 64 1 64 2080 89440
177	10908843 912 68 777 0.09995410364 1.001344 40 0 20 400 5340
179	10909755 151073 547 452171 1.0000672 244.98088236184 4724 1 4724 11160450 35151697350
180	11060828 655 27297 442104 14.703091994417 239.969085981275 22 1 22 253 3795
181	11061483 159899 547 452171 1.0000672 244.98088236184 4724 64 302718 715812714 1.4448252002235e+14
182	11221382 696 27297 442104 14.703091994417 239.969085981275 22 108 1692 19804 23047600
186	11222078 655 27297 442104 14.703091994417 239.969085981275 22 1 22 253 3795
191	11222733 1020 74 426195 0.118605855963 231.927568986451 44 0 21 442 6182
193	11223753 151991 548 452133 1.0000672 244.957639855024 4752 1 4752 11293128 35780393880
194	11375744 314 69548 442535 38.432617943997 240.111238767622 11 1 11 66 506
195	11376058 160874 548 452133 1.0000672 244.957639855024 4752 64 305350 724473642 1.4721375385925e+14
196	11536932 334 69548 442535 38.432617943997 240.111238767622 11 130 952 5670 3727740
200	11537266 314 69548 442535 38.432617943997 240.111238767622 11 1 11 66 506
205	11537580 282013 812 452045 1.0100672 244.924479743071 9490 0 144 304346 19550284
206	11819593 1116 864 38424 1.0102036 19.075471898909 46 0 16 299 3059
208	11820709 2937576 0 452126 0 244.94281420695 101058 0 7 260262 984482
209	14758285 851032 0 452121 0 244.94266420695 29258 0 2 29088 58008
210	15609317 30 275029 275029 151.394690059083 151.394690059083 1 0 0 0 0
211	15609347 655 27278 442060 14.693091994417 239.959085981275 22 1 22 253 3795
212	15610002 151051 805 452043 1.0100672 244.924477743071 4723 1 4723 11155726 35129381174
213	15761053 696 27278 442060 14.693091994417 239.959085981275 22 108 1692 19804 23047600
214	15761749 159875 805 452043 1.0100672 244.924477743071 4723 64 302654 715509996 1.4439088183482e+14
218	15921624 151051 805 452043 1.0100672 244.924477743071 4723 1 4723 11155726 35129381174
223	16072675 283113 813 452149 1.0100672 244.967641855024 9526 0 144 306302 19808236
224	16355788 943 865 1486 1.0102036 1.02104556362 40 0 18 356 4272
226	16356731 2975930 0 452163 0 244.968087673205 101692 0 7 262486 992026
227	19332661 859366 0 452156 0 244.967937673205 29370 0 2 29286 58490
229	20192027 314 69516 442521 38.422617943997 240.101238767622 11 1 11 66 506
230	20192341 152003 806 452147 1.0100672 244.967639855024 4752 1 4752 11293128 35780393880
231	20344344 334 69516 442521 38.422617943997 240.101238767622 11 130 952 5670 3727740
232	20344678 160886 806 452147 1.0100672 244.967639855024 4752 64 305350 724473642 1.4721375385925e+14
236	20505564 152003 806 452147 1.0100672 244.967639855024 4752 1 4752 11293128 35780393880
241	20657567 10 0 0 0 0 1 1 1 1 1
242	20657577 56 18140 18144 10.221239940874 10.221308740874 2 0 1 1 1
244	20657633 1593 549 442700 1.0000672 240.181878767622 55 1 55 1540 56980
245	20659226 1131 1449 442621 1.0200672 240.141507567622 39 1 39 780 20540
246	20660357 1698 549 442700 1.0000672 240.181878767622 55 64 4098 107972 283184712
247	20662055 1204 1449 442621 1.0200672 240.141507567622 39 64 3088 57330 114089996
251	20663259 1131 1449 442621 1.0200672 240.141507567622 39 1 39 780 20540
256	20664390 56 17937 17941 10.140899140874 10.140967940874 2 0 1 1 1
258	20664446 1184 550 442628 1.0000672 240.141641967622 41 1 41 861 23821
259	20665630 1674 1451 442693 1.0200672 240.181760367622 58 1 58 1711 66729
260	20667304 1261 550 442628 1.0000672 240.141641967622 41 64 3216 62648 129651040
261	20668565 1785 1451 442693 1.0200672 240.181760367622 58 64 4290 119028 326923080
265	20670350 1674 1451 442693 1.0200672 240.181760367622 58 1 58 1711 66729
270	20672024 75 132 132 0.233447027066 0.233447027066 3 1 1 3 3
271	20672099 50 87 3639 0.156140310969 2.528305054092 2 1 1 2 2
275	20672149 86 28903 442646 15.021000955272 240.161641967622 3 2 2 6 12
280	20672235 206 28120 442248 14.877629745246 240.019364381275 7 1 1 7 7
281	20672441 86 28176 411643 14.878592755681 224.999917958331 3 1 1 3 3
284	20672527 50 198 198 0.293585502868 0.293585502868 2 1 1 2 2
288	20672577 112 27429 70427 14.743459994417 38.598010566114 4 1 1 4 4
293	20672689 206 27953 441807 14.845830924376 239.907175163502 7 1 1 7 7
294	20672895 86 27966 411258 14.846853934811 224.908178073544 3 1 1 3 3
297	20672981 157 191 66797 0.289443216007 37.081871470039 6 1 1 6 6
298	20673138 56 27259 69497 14.692641540644 38.422133879804 2 1 1 2 2
299	20673194 842 28100 448276 14.877414782384 242.958642308066 29 1 1 29 29
302	20674036 56 27695 69840 14.814942691886 38.504303872807 2 1 1 2 2
303	20674092 86 29066 442825 15.081737651198 240.222465066622 3 1 1 3 3
304	20674178 412 27696 442037 14.814942691886 239.958682080631 14 1 1 14 14
305	20674590 172 27697 411394 14.814942691886 224.939235203254 6 1 1 6 6
308	20674762 170 28076 442493 14.876585662858 240.100416719903 6 1 1 6 6
309	20674932 172 28099 411842 14.877414782384 225.060560128271 6 1 1 6 6
310	20675104 51 254 3982 0.419663425534 2.746018912556 2 1 1 2 2
323	20675155 75 145 145 0.234158752695 0.234158752695 3 1 1 3 3
324	20675230 50 120 120 0.216189795476 0.216189795476 2 1 1 2 2
vector 228  VoIPMCoAMulti.AP_2.wlan.radio  "MAC loss rate"  ETV
vector 163  VoIPMCoAMulti.R1.eth[0].queue  "queue length"  ETV
3	20675407 695 459331 735660 248.586596823206 394.033165219659 24 35 58 1116 53044
4	20676102 521 459391 725804 248.606728023206 388.917217061583 18 51 68 1071 64209
5	20676623 743 459331 735660 248.586596823206 394.033165219659 24 3176 5320 103200 454454016
6	20677366 557 459391 725804 248.606728023206 388.917217061583 18 4736 6722 103586 602830404
10	20677923 539 459391 725804 248.606728023206 388.917217061583 18 51 68 1071 64209
17	20678462 689 459398 725759 248.606859223206 388.897124261583 23 65 87 1748 133860
18	20679151 749 459324 725744 248.586504023206 388.897057061583 25 33 57 1125 51925
19	20679900 735 459398 725759 248.606859223206 388.897124261583 23 5876 8456 165026 1198581492
20	20680635 799 459324 725744 248.586504023206 388.897057061583 25 3306 5834 114334 537708100
24	20681434 749 459324 725744 248.586504023206 388.897057061583 25 33 57 1125 51925
31	20682183 449 459611 716433 248.649007814533 384.121667450395 15 40 54 705 33415
32	20682632 449 459859 716656 248.729263814533 384.202038650395 15 56 70 945 59815
33	20683081 479 459611 716433 248.649007814533 384.121667450395 15 3184 4608 58632 231861728
34	20683560 479 459859 716656 248.729263814533 384.202038650395 15 4180 5572 73380 361574512
38	20684039 449 459859 716656 248.729263814533 384.202038650395 15 56 70 945 59815
52	20684488 116 544038 664039 293.019365119492 357.019406033494 4 0 1 2 2
54	20684604 449 459757 716534 248.689182214533 384.161920250395 15 59 73 990 65620
55	20685053 569 453354 716525 245.566385551291 384.161801850395 19 42 60 969 49989
56	20685622 479 459757 716534 248.689182214533 384.161920250395 15 4372 5764 76260 390305392
57	20686101 607 453354 716525 245.566385551291 384.161801850395 19 3280 4992 78720 330823584
61	20686708 569 453354 716525 245.566385551291 384.161801850395 19 42 60 969 49989
77	20687277 58 543739 543740 292.907175898589 292.907217498589 2 0 1 1 1
79	20687335 539 459371 725795 248.596728023206 388.907217061583 18 51 68 1071 64209
80	20687874 719 459360 735736 248.596596823206 394.043165219659 24 35 58 1116 53044
81	20688593 575 459371 725795 248.596728023206 388.907217061583 18 4736 6722 103586 602830404
82	20689168 767 459360 735736 248.596596823206 394.043165219659 24 3176 5320 103200 454454016
86	20689935 719 459360 735736 248.596596823206 394.043165219659 24 35 58 1116 53044
93	20690654 98848 452190 747180 244.986821634998 399.950516504504 3099 4807 7905 19697244 127675864214
95	20789502 105046 452190 747180 244.986821634998 399.950516504504 3099 307658 505930 1260654606 5.2298555260276e+14
105	20894548 188399 452211 747220 244.996821634998 399.960518504504 6198 0 64 198336 12693504
108	21082947 1945092 452182 747259 244.985073900997 399.985133900997 64998 0 5 167280 632102
109	23028039 556504 452216 747254 244.996873634998 399.985023900997 18596 0 2 18596 37192
112	23584543 101947 452210 747218 244.996821634998 399.960516504504 3099 4807 7905 19697244 127675864214
114	23686490 108145 452210 747218 244.996821634998 399.960516504504 3099 307658 505930 1260654606 5.2298555260276e+14
118	23794635 101947 452210 747218 244.996821634998 399.960516504504 3099 4807 7905 19697244 127675864214
136	23896582 260400 452260 746855 245.035024732353 399.785705823262 8680 0 5 22320 84320
137	24156982 74400 452262 746853 245.035074732353 399.785295823262 2480 0 2 2480 4960
141	24231382 776392 452199 747193 244.99093453951 399.956495176143 25974 0 7 3624 13696
142	25007774 504188 452199 747192 244.99093453951 399.956495176143 16868 0 2 8624 9004
143	25511962 2453 455315 745616 246.538785005129 399.142664808255 82 0 0 0 0
146	25514415 660656 452249 747243 245.028057655533 399.962655847318 22094 0 7 9418 36234
147	26175071 404374 452249 747242 245.028057655533 399.962655847318 13528 0 2 7288 8336
148	26579445 1886 453540 747242 245.662655693507 399.962655847318 63 0 0 0 0
159	26581331 862878 452179 747256 244.985024332493 399.985024332493 28834 0 0 0 0
160	27444209 575224 452179 747255 244.985024332493 399.985024332493 19222 0 1 9611 9611
161	28019433 2880 454410 746270 246.085024332493 399.485024332493 96 0 0.02 0.04 0.0008
163	28022313 60 597396 597400 322.927438084855 322.927601284855 2 0 1 1 1
165	28022373 774 459294 725717 248.576504023206 388.887057061583 25 33 57 1125 51925
166	28023147 712 459427 725782 248.616859223206 388.907124261583 23 65 87 1748 133860
167	28023859 824 459294 725717 248.576504023206 388.887057061583 25 3306 5834 114334 537708100
168	28024683 758 459427 725782 248.616859223206 388.907124261583 23 5876 8456 165026 1198581492
172	28025441 712 459427 725782 248.616859223206 388.907124261583 23 65 87 1748 133860
179	28026153 102033 452296 747166 245.046043691552 399.946196730065 3102 4725 7826 19466601 124650045751
180	28128186 309 473877 716022 255.886989945971 383.96908627731 10 23 32 275 7645
181	28128495 108237 452296 747166 245.046043691552 399.946196730065 3102 302782 501246 1247047428 5.1151887897484e+14
182	28236732 329 473877 716022 255.886989945971 383.96908627731 10 1770 2472 21210 45488340
186	28237061 309 473877 716022 255.886989945971 383.96908627731 10 23 32 275 7645
191	28237370 60 655795 655799 352.948150008937 352.948281208937 2 0 1 1 1
193	28237430 103430 452240 747173 245.018005039616 399.949781256423 3144 4753 7896 19884228 128347600556
194	28340860 310 459287 725942 248.576411223206 388.948628159115 10 12 21 165 2805
195	28341170 109718 452240 747173 245.018005039616 399.949781256423 3144 305414 507658 1278524828 5.306041905931e+14
196	28450888 330 459287 725942 248.576411223206 388.948628159115 10 1030 1864 14452 21675872
200	28451218 310 459287 725942 248.576411223206 388.948628159115 10 12 21 165 2805
205	28451528 189223 452193 747184 244.99088236184 399.956198730065 6226 0 78 199372 12770728
208	28640751 1942790 452196 747198 244.99088436184 399.956544548246 65328 0 7 167994 635366
209	30583541 559066 452198 747191 244.99093436184 399.956494548246 18784 0 2 18740 37436
210	31142607 30 570948 570948 308.597514064026 308.597514064026 1 0 0 0 0
211	31142637 309 473839 715996 255.876989945971 383.95908627731 10 23 32 275 7645
212	31142946 102065 452192 747182 244.99088236184 399.956196730065 3103 4724 7826 19471325 124672361927
213	31245011 329 473839 715996 255.876989945971 383.95908627731 10 1770 2472 21210 45488340
214	31245340 108271 452192 747182 244.99088236184 399.956196730065 3103 302718 501246 1247350146 5.1161051716236e+14
218	31353611 102065 452192 747182 244.99088236184 399.956196730065 3103 4724 7826 19471325 124672361927
223	31455676 191768 452243 747202 245.028005039616 399.959783256423 6308 0 144 203220 13193768
226	31647444 1988758 452246 747246 245.028007039616 399.962725096911 66456 0 7 171350 647678
227	33636202 575780 452248 747241 245.028057039616 399.962655096911 19240 0 2 19138 38174
228	34211982 30 460090 460090 248.790477907994 248.790477907994 1 0 0 0 0
229	34212012 310 459219 725905 248.566411223206 388.938628159115 10 12 21 165 2805
230	34212322 103430 452242 747200 245.028005039616 399.959781256423 3144 4753 7896 19884228 128347600556
231	34315752 330 459219 725905 248.566411223206 388.938628159115 10 1030 1864 14452 21675872
232	34316082 109718 452242 747200 245.028005039616 399.959781256423 3144 305414 507658 1278524828 5.306041905931e+14
236	34425800 103430 452242 747200 245.028005039616 399.959781256423 3144 4753 7896 19884228 128347600556
244	34529230 464 459811 716606 248.709263814533 384.182038650395 15 56 70 945 59815
245	34529694 464 459686 716503 248.669007814533 384.141667450395 15 40 54 705 33415
246	34530158 494 459811 716606 248.709263814533 384.182038650395 15 4180 5572 73380 361574512
247	34530652 494 459686 716503 248.669007814533 384.141667450395 15 3184 4608 58632 231861728
251	34531146 464 459686 716503 248.669007814533 384.141667450395 15 40 54 705 33415
258	34531610 588 453290 716510 245.546385551291 384.141801850395 19 42 60 969 49989
259	34532198 464 459804 716599 248.709182214533 384.181920250395 15 59 73 990 65620
260	34532662 626 453290 716510 245.546385551291 384.141801850395 19 3280 4992 78720 330823584
261	34533288 494 459804 716599 248.709182214533 384.181920250395 15 4372 5764 76260 390305392
265	34533782 464 459804 716599 248.709182214533 384.181920250395 15 59 73 990 65620
275	34534246 120 460232 716528 248.851003107994 384.161801850395 4 2 2 8 16
280	34534366 179 459796 716141 248.708726082697 384.01936467731 6 1 1 6 6
281	34534545 30 459751 459751 248.689100614533 248.689100614533 1 1 1 1 1
293	34534575 180 459363 715834 248.596596823206 383.907175461583 6 1 1 6 6
294	34534755 30 459376 459376 248.597519285673 248.597519285673 1 1 1 1 1
299	34534785 1138 456128 745201 246.958642308066 398.937929990276 38 1 1 38 38
303	34535923 120 460399 716707 248.911825926572 384.222624752637 4 1 1 4 4
304	34536043 358 459201 715978 248.5660068647 383.958682080631 12 1 1 12 12
305	34536401 60 459225 459496 248.566699708067 248.628296467778 2 1 1 2 2
308	34536461 238 459467 716374 248.627351287636 384.100416809307 8 1 1 8 8
309	34536699 60 459490 459918 248.628079859194 248.749742784889 2 1 1 2 2
