file 16710676 1427049858                                        
version 2
run MCoA_ALL-0-20150322-19:44:12-12749
attr configname MCoA_ALL
attr datetime 20150322-19:44:12
attr experiment MCoA_ALL
attr inifile VoIPMCoACN.ini
attr iterationvars ""
attr iterationvars2 $repetition=0
attr measurement ""
attr network VoIPMCoAMulti
attr processid 12749
attr repetition 0
attr replication #0
attr resultdir results
attr runnumber 0
attr seedset 0

vector 0  VoIPMCoAMulti.Ra.networkLayer.ipv6  IPv6Active_Event  ETV
vector 51  VoIPMCoAMulti.CN[0].networkLayer.ipv6  IPv6Active_Event  ETV
vector 76  VoIPMCoAMulti.HA.networkLayer.ipv6  IPv6Active_Event  ETV
vector 133  VoIPMCoAMulti.MN[0].networkLayer.ipv6  IPv6Active_Event  ETV
vector 156  VoIPMCoAMulti.MN[1].networkLayer.ipv6  IPv6Active_Event  ETV
vector 162  VoIPMCoAMulti.R1.networkLayer.ipv6  IPv6Active_Event  ETV
vector 241  VoIPMCoAMulti.Rb.networkLayer.ipv6  IPv6Active_Event  ETV
vector 109  VoIPMCoAMulti.AP_HA.wlan.mac  RadioState  ETV
attr enum  "IDLE=0, RECV=1, SLEEP=3, TRANSMIT=2"
attr enumname  RadioState
vector 108  VoIPMCoAMulti.AP_HA.wlan.mac  State  ETV
attr enum  "BACKOFF=3, DEFER=1, IDLE=0, RECEIVE=8, WAITACK=4, WAITBROADCAST=5, WAITCTS=6, WAITDIFS=2, WAITSIFS=7"
attr enumname  Ieee80211Mac
vector 137  VoIPMCoAMulti.MN[0].wlan[0].mac  RadioState  ETV
attr enum  "IDLE=0, RECV=1, SLEEP=3, TRANSMIT=2"
attr enumname  RadioState
vector 136  VoIPMCoAMulti.MN[0].wlan[0].mac  State  ETV
attr enum  "BACKOFF=3, DEFER=1, IDLE=0, RECEIVE=8, WAITACK=4, WAITBROADCAST=5, WAITCTS=6, WAITDIFS=2, WAITSIFS=7"
attr enumname  Ieee80211Mac
vector 142  VoIPMCoAMulti.MN[0].wlan[1].mac  RadioState  ETV
attr enum  "IDLE=0, RECV=1, SLEEP=3, TRANSMIT=2"
attr enumname  RadioState
vector 141  VoIPMCoAMulti.MN[0].wlan[1].mac  State  ETV
attr enum  "BACKOFF=3, DEFER=1, IDLE=0, RECEIVE=8, WAITACK=4, WAITBROADCAST=5, WAITCTS=6, WAITDIFS=2, WAITSIFS=7"
attr enumname  Ieee80211Mac
vector 147  VoIPMCoAMulti.MN[0].wlan[2].mac  RadioState  ETV
attr enum  "IDLE=0, RECV=1, SLEEP=3, TRANSMIT=2"
attr enumname  RadioState
vector 146  VoIPMCoAMulti.MN[0].wlan[2].mac  State  ETV
attr enum  "BACKOFF=3, DEFER=1, IDLE=0, RECEIVE=8, WAITACK=4, WAITBROADCAST=5, WAITCTS=6, WAITDIFS=2, WAITSIFS=7"
attr enumname  Ieee80211Mac
vector 160  VoIPMCoAMulti.MN[1].wlan[0].mac  RadioState  ETV
attr enum  "IDLE=0, RECV=1, SLEEP=3, TRANSMIT=2"
attr enumname  RadioState
vector 159  VoIPMCoAMulti.MN[1].wlan[0].mac  State  ETV
attr enum  "BACKOFF=3, DEFER=1, IDLE=0, RECEIVE=8, WAITACK=4, WAITBROADCAST=5, WAITCTS=6, WAITDIFS=2, WAITSIFS=7"
attr enumname  Ieee80211Mac
vector 209  VoIPMCoAMulti.AP_1.wlan.mac  RadioState  ETV
attr enum  "IDLE=0, RECV=1, SLEEP=3, TRANSMIT=2"
attr enumname  RadioState
vector 208  VoIPMCoAMulti.AP_1.wlan.mac  State  ETV
attr enum  "BACKOFF=3, DEFER=1, IDLE=0, RECEIVE=8, WAITACK=4, WAITBROADCAST=5, WAITCTS=6, WAITDIFS=2, WAITSIFS=7"
attr enumname  Ieee80211Mac
vector 227  VoIPMCoAMulti.AP_2.wlan.mac  RadioState  ETV
attr enum  "IDLE=0, RECV=1, SLEEP=3, TRANSMIT=2"
attr enumname  RadioState
vector 226  VoIPMCoAMulti.AP_2.wlan.mac  State  ETV
attr enum  "BACKOFF=3, DEFER=1, IDLE=0, RECEIVE=8, WAITACK=4, WAITBROADCAST=5, WAITCTS=6, WAITDIFS=2, WAITSIFS=7"
attr enumname  Ieee80211Mac
vector 177  VoIPMCoAMulti.R1.eth[1].queue  "queue length"  ETV
vector 91  VoIPMCoAMulti.HA.eth[1].queue  "queue length"  ETV
vector 191  VoIPMCoAMulti.R1.eth[2].queue  "queue length"  ETV
vector 271  VoIPMCoAMulti.CN[0].networkLayer.neighbourDiscovery  "Starting DAD"  ETV
vector 324  VoIPMCoAMulti.Rb.networkLayer.neighbourDiscovery  "Starting DAD"  ETV
vector 270  VoIPMCoAMulti.Ra.networkLayer.neighbourDiscovery  "Starting DAD"  ETV
vector 323  VoIPMCoAMulti.R1.networkLayer.neighbourDiscovery  "Starting DAD"  ETV
vector 297  VoIPMCoAMulti.MN[0].networkLayer.neighbourDiscovery  "Starting DAD"  ETV
vector 284  VoIPMCoAMulti.HA.networkLayer.neighbourDiscovery  "Starting DAD"  ETV
vector 310  VoIPMCoAMulti.MN[1].networkLayer.neighbourDiscovery  "Starting DAD"  ETV
vector 3  VoIPMCoAMulti.Ra.eth[0].mac  framesSent  ETV
vector 5  VoIPMCoAMulti.Ra.eth[0].mac  bytesSent  ETV
vector 17  VoIPMCoAMulti.Ra.eth[1].mac  framesSent  ETV
vector 19  VoIPMCoAMulti.Ra.eth[1].mac  bytesSent  ETV
vector 31  VoIPMCoAMulti.Ra.eth[2].mac  framesSent  ETV
vector 33  VoIPMCoAMulti.Ra.eth[2].mac  bytesSent  ETV
vector 54  VoIPMCoAMulti.CN[0].eth[0].mac  framesSent  ETV
vector 56  VoIPMCoAMulti.CN[0].eth[0].mac  bytesSent  ETV
vector 79  VoIPMCoAMulti.HA.eth[0].mac  framesSent  ETV
vector 81  VoIPMCoAMulti.HA.eth[0].mac  bytesSent  ETV
vector 93  VoIPMCoAMulti.HA.eth[1].mac  framesSent  ETV
vector 95  VoIPMCoAMulti.HA.eth[1].mac  bytesSent  ETV
vector 165  VoIPMCoAMulti.R1.eth[0].mac  framesSent  ETV
vector 167  VoIPMCoAMulti.R1.eth[0].mac  bytesSent  ETV
vector 179  VoIPMCoAMulti.R1.eth[1].mac  framesSent  ETV
vector 181  VoIPMCoAMulti.R1.eth[1].mac  bytesSent  ETV
vector 193  VoIPMCoAMulti.R1.eth[2].mac  framesSent  ETV
vector 195  VoIPMCoAMulti.R1.eth[2].mac  bytesSent  ETV
vector 244  VoIPMCoAMulti.Rb.eth[0].mac  framesSent  ETV
vector 246  VoIPMCoAMulti.Rb.eth[0].mac  bytesSent  ETV
vector 258  VoIPMCoAMulti.Rb.eth[1].mac  framesSent  ETV
vector 260  VoIPMCoAMulti.Rb.eth[1].mac  bytesSent  ETV
vector 80  VoIPMCoAMulti.HA.eth[0].mac  framesReceivedOK  ETV
vector 82  VoIPMCoAMulti.HA.eth[0].mac  bytesReceivedOK  ETV
vector 86  VoIPMCoAMulti.HA.eth[0].mac  framesPassedToHL  ETV
vector 166  VoIPMCoAMulti.R1.eth[0].mac  framesReceivedOK  ETV
vector 168  VoIPMCoAMulti.R1.eth[0].mac  bytesReceivedOK  ETV
vector 172  VoIPMCoAMulti.R1.eth[0].mac  framesPassedToHL  ETV
vector 4  VoIPMCoAMulti.Ra.eth[0].mac  framesReceivedOK  ETV
vector 6  VoIPMCoAMulti.Ra.eth[0].mac  bytesReceivedOK  ETV
vector 10  VoIPMCoAMulti.Ra.eth[0].mac  framesPassedToHL  ETV
vector 112  VoIPMCoAMulti.AP_HA.eth[0]  framesReceivedOK  ETV
vector 114  VoIPMCoAMulti.AP_HA.eth[0]  bytesReceivedOK  ETV
vector 118  VoIPMCoAMulti.AP_HA.eth[0]  framesPassedToHL  ETV
vector 18  VoIPMCoAMulti.Ra.eth[1].mac  framesReceivedOK  ETV
vector 20  VoIPMCoAMulti.Ra.eth[1].mac  bytesReceivedOK  ETV
vector 24  VoIPMCoAMulti.Ra.eth[1].mac  framesPassedToHL  ETV
vector 212  VoIPMCoAMulti.AP_1.eth[0]  framesReceivedOK  ETV
vector 214  VoIPMCoAMulti.AP_1.eth[0]  bytesReceivedOK  ETV
vector 218  VoIPMCoAMulti.AP_1.eth[0]  framesPassedToHL  ETV
vector 230  VoIPMCoAMulti.AP_2.eth[0]  framesReceivedOK  ETV
vector 232  VoIPMCoAMulti.AP_2.eth[0]  bytesReceivedOK  ETV
vector 236  VoIPMCoAMulti.AP_2.eth[0]  framesPassedToHL  ETV
vector 105  VoIPMCoAMulti.AP_HA.relayUnit  "buffer level"  ETV
vector 205  VoIPMCoAMulti.AP_1.relayUnit  "buffer level"  ETV
vector 223  VoIPMCoAMulti.AP_2.relayUnit  "buffer level"  ETV
vector 106  VoIPMCoAMulti.AP_HA.wlan.mgmt  "queue length"  ETV
vector 206  VoIPMCoAMulti.AP_1.wlan.mgmt  "queue length"  ETV
vector 224  VoIPMCoAMulti.AP_2.wlan.mgmt  "queue length"  ETV
vector 245  VoIPMCoAMulti.Rb.eth[0].mac  framesReceivedOK  ETV
vector 247  VoIPMCoAMulti.Rb.eth[0].mac  bytesReceivedOK  ETV
vector 251  VoIPMCoAMulti.Rb.eth[0].mac  framesPassedToHL  ETV
vector 32  VoIPMCoAMulti.Ra.eth[2].mac  framesReceivedOK  ETV
vector 34  VoIPMCoAMulti.Ra.eth[2].mac  bytesReceivedOK  ETV
vector 38  VoIPMCoAMulti.Ra.eth[2].mac  framesPassedToHL  ETV
vector 259  VoIPMCoAMulti.Rb.eth[1].mac  framesReceivedOK  ETV
vector 261  VoIPMCoAMulti.Rb.eth[1].mac  bytesReceivedOK  ETV
vector 265  VoIPMCoAMulti.Rb.eth[1].mac  framesPassedToHL  ETV
vector 55  VoIPMCoAMulti.CN[0].eth[0].mac  framesReceivedOK  ETV
vector 57  VoIPMCoAMulti.CN[0].eth[0].mac  bytesReceivedOK  ETV
vector 61  VoIPMCoAMulti.CN[0].eth[0].mac  framesPassedToHL  ETV
vector 161  VoIPMCoAMulti.MN[1].wlan[0].radio  "MAC loss rate"  ETV
vector 138  VoIPMCoAMulti.MN[0].wlan[0].radio  "MAC loss rate"  ETV
vector 111  VoIPMCoAMulti.AP_HA.eth[0]  framesSent  ETV
vector 113  VoIPMCoAMulti.AP_HA.eth[0]  bytesSent  ETV
vector 94  VoIPMCoAMulti.HA.eth[1].mac  framesReceivedOK  ETV
vector 96  VoIPMCoAMulti.HA.eth[1].mac  bytesReceivedOK  ETV
vector 100  VoIPMCoAMulti.HA.eth[1].mac  framesPassedToHL  ETV
vector 77  VoIPMCoAMulti.HA.eth[0].queue  "queue length"  ETV
vector 29  VoIPMCoAMulti.Ra.eth[2].queue  "queue length"  ETV
vector 256  VoIPMCoAMulti.Rb.eth[1].queue  "queue length"  ETV
vector 52  VoIPMCoAMulti.CN[0].eth[0].queue  "queue length"  ETV
vector 242  VoIPMCoAMulti.Rb.eth[0].queue  "queue length"  ETV
vector 1  VoIPMCoAMulti.Ra.eth[0].queue  "queue length"  ETV
vector 298  VoIPMCoAMulti.MN[0].networkLayer.xMobileIPv6  "BU to HA"  ETV
vector 211  VoIPMCoAMulti.AP_1.eth[0]  framesSent  ETV
vector 213  VoIPMCoAMulti.AP_1.eth[0]  bytesSent  ETV
vector 180  VoIPMCoAMulti.R1.eth[1].mac  framesReceivedOK  ETV
vector 182  VoIPMCoAMulti.R1.eth[1].mac  bytesReceivedOK  ETV
vector 186  VoIPMCoAMulti.R1.eth[1].mac  framesPassedToHL  ETV
vector 288  VoIPMCoAMulti.HA.networkLayer.xMobileIPv6  "BA to MN"  ETV
vector 143  VoIPMCoAMulti.MN[0].wlan[1].radio  "MAC loss rate"  ETV
vector 302  VoIPMCoAMulti.MN[0].networkLayer.xMobileIPv6  "BA from HA"  ETV
vector 304  VoIPMCoAMulti.MN[0].networkLayer.xMobileIPv6  "HoTI to CN"  ETV
vector 305  VoIPMCoAMulti.MN[0].networkLayer.xMobileIPv6  "CoTI to CN"  ETV
vector 139  VoIPMCoAMulti.MN[0].wlan[1].mgmt  "queue length"  ETV
vector 293  VoIPMCoAMulti.HA.networkLayer.xMobileIPv6  "HoT to MN"  ETV
vector 294  VoIPMCoAMulti.HA.networkLayer.xMobileIPv6  "CoT to MN"  ETV
vector 308  VoIPMCoAMulti.MN[0].networkLayer.xMobileIPv6  "HoT from CN"  ETV
vector 309  VoIPMCoAMulti.MN[0].networkLayer.xMobileIPv6  "CoT from CN"  ETV
vector 299  VoIPMCoAMulti.MN[0].networkLayer.xMobileIPv6  "BU to CN"  ETV
vector 280  VoIPMCoAMulti.CN[0].networkLayer.xMobileIPv6  "HoT to MN"  ETV
vector 281  VoIPMCoAMulti.CN[0].networkLayer.xMobileIPv6  "CoT to MN"  ETV
vector 275  VoIPMCoAMulti.CN[0].networkLayer.xMobileIPv6  "BA to MN"  ETV
vector 303  VoIPMCoAMulti.MN[0].networkLayer.xMobileIPv6  "BA from CN"  ETV
vector 229  VoIPMCoAMulti.AP_2.eth[0]  framesSent  ETV
vector 231  VoIPMCoAMulti.AP_2.eth[0]  bytesSent  ETV
vector 194  VoIPMCoAMulti.R1.eth[2].mac  framesReceivedOK  ETV
vector 196  VoIPMCoAMulti.R1.eth[2].mac  bytesReceivedOK  ETV
vector 200  VoIPMCoAMulti.R1.eth[2].mac  framesPassedToHL  ETV
vector 148  VoIPMCoAMulti.MN[0].wlan[2].radio  "MAC loss rate"  ETV
vector 144  VoIPMCoAMulti.MN[0].wlan[2].mgmt  "queue length"  ETV
vector 110  VoIPMCoAMulti.AP_HA.wlan.radio  "MAC loss rate"  ETV
0	10394 8 0 0 0 0 1 1 1 1 1
1	10402 52 18253 18257 10.261443140874 10.261511940874 2 0 1 1 1
3	10454 442 540 67301 1.0000672 38.460429496816 17 1 17 153 1785
4	10896 469 802 67423 1.0100672 38.480523896816 18 1 18 171 2109
5	11365 473 540 67301 1.0000672 38.460429496816 17 64 1592 13264 14460624
6	11838 502 802 67423 1.0100672 38.480523896816 18 64 1688 14658 16640788
10	12340 487 802 67423 1.0100672 38.480523896816 18 1 18 171 2109
17	12827 487 541 67890 1.0000672 38.601852491782 18 1 18 171 2109
18	13314 459 804 67601 1.0100672 38.521228491782 17 1 17 153 1785
19	13773 521 541 67890 1.0000672 38.601852491782 18 64 1826 16054 19729884
20	14294 491 804 67601 1.0100672 38.521228491782 17 64 1782 14664 17383176
24	14785 459 804 67601 1.0100672 38.521228491782 17 1 17 153 1785
29	15244 54 17779 17783 10.080695940874 10.080764740874 2 0 1 1 1
31	15298 291 542 67609 1.0000672 38.521362891782 11 1 11 66 506
32	15589 292 1450 67883 1.0200672 38.601734091782 11 1 11 66 506
33	15881 310 542 67609 1.0000672 38.521362891782 11 64 982 5102 3290036
34	16191 311 1450 67883 1.0200672 38.601734091782 11 64 930 4972 3078128
38	16502 292 1450 67883 1.0200672 38.601734091782 11 1 11 66 506
51	16794 9 0 0 0 0 1 1 1 1 1
52	16803 54 17994 17998 10.161036740874 10.161105540874 2 0 1 1 1
54	16857 368 543 67772 1.0000672 38.561615691782 14 1 14 105 1015
55	17225 344 1452 67762 1.0200672 38.561497291782 13 1 13 91 819
56	17569 391 543 67772 1.0000672 38.561615691782 14 64 1122 7572 5579824
57	17960 366 1452 67762 1.0200672 38.561497291782 13 64 1110 6828 4946600
61	18326 344 1452 67762 1.0200672 38.561497291782 13 1 13 91 819
76	18670 37 0 60156 0 35 3 1 2 4 6
77	18707 54 17641 17645 10.030492740874 10.030561540874 2 0 1 1 1
79	18761 487 544 67358 1.0000672 38.470523896816 18 1 18 171 2109
80	19248 459 800 67349 1.0100672 38.470429496816 17 1 17 153 1785
81	19707 520 544 67358 1.0000672 38.470523896816 18 64 1688 14658 16640788
82	20227 490 800 67349 1.0100672 38.470429496816 17 64 1592 13264 14460624
86	20717 459 800 67349 1.0100672 38.470429496816 17 1 17 153 1785
91	21176 832 71 764 0.115677423169 1.0012768 38 0 19 361 4579
93	22008 120209 545 365821 1.0000672 199.964280519923 3911 1 3911 7649916 19948430956
94	142217 184 8530 28369 5.111241259032 15.010346211736 7 1 7 28 140
95	142401 127404 545 365821 1.0000672 199.964280519923 3911 64 250306 489602024 81710725863376
96	269805 196 8530 28369 5.111241259032 15.010346211736 7 40 304 1208 264128
100	270001 191 8530 28369 5.111241259032 15.010346211736 7 1 7 28 140
105	270192 231307 810 365832 1.0100672 199.974282519923 7836 0 66 250610 16033028
106	501499 846 863 1507 1.0102036 1.022153927258 36 0 16 288 3114
108	502345 2421510 0 365899 0 199.985153900997 83302 0 7 214524 811228
109	2923855 698964 0 365888 0 199.985023900997 24054 0 2 23946 47786
110	3622819 30 245151 245151 135.388671577554 135.388671577554 1 0 0 0 0
111	3622849 191 8491 28337 5.101241259032 15.000346211736 7 1 7 28 140
112	3623040 124129 803 365830 1.0100672 199.974280519923 3911 1 3911 7649916 19948430956
113	3747169 203 8491 28337 5.101241259032 15.000346211736 7 40 304 1208 264128
114	3747372 131324 803 365830 1.0100672 199.974280519923 3911 64 250306 489602024 81710725863376
118	3878696 124129 803 365830 1.0100672 199.974280519923 3911 1 3911 7649916 19948430956
133	4002825 10 0 0 0 0 1 1 1 1 1
136	4002835 727756 0 365592 0 199.835785824936 24924 0 7 14374 54630
137	4730591 428676 0 365590 0 199.835295824936 14660 0 2 8120 9704
138	5159267 1905 8118 342547 4.911634841796 187.321166322821 65 0 0 0 0
139	5161172 112 26580 26630 14.507503015193 14.509487073299 4 0 2 4 6
141	5161284 786034 0 365883 0 199.985001426339 27082 0 7 10192 38864
142	5947318 483946 0 365882 0 199.985001426339 16696 0 2 8908 10032
143	6431264 2226 26334 363380 14.445731640297 198.642664979388 77 0 0 0 0
144	6433490 110 66702 66752 38.35565255767 38.357896632624 4 0 2 4 6
146	6433600 493162 0 365814 0 199.963157021226 17050 0 7 21946 83142
147	6926762 236234 0 365812 0 199.962927021226 8216 0 2 5322 7754
148	7162996 800 66597 155106 38.336049251656 86.262655887315 28 0 0 0 0
156	7163796 10 0 0 0 0 1 1 1 1 1
159	7163806 1054474 0 365890 0 199.985024332493 36248 0 7 356 1400
160	8218280 700016 0 365889 0 199.985024332493 24060 0 2 12046 12082
161	8918296 3499 6246 365571 3.976472286066 199.817403827155 120 0 0.02 0.04 0.0008
162	8921795 70 0 75800 0 45 5 1 2 7 11
165	8921865 476 546 67586 1.0000672 38.511228491782 17 1 17 153 1785
166	8922341 505 801 67892 1.0100672 38.611852491782 18 1 18 171 2109
167	8922846 508 546 67586 1.0000672 38.511228491782 17 64 1782 14664 17383176
168	8923354 539 801 67892 1.0100672 38.611852491782 18 64 1826 16054 19729884
172	8923893 505 801 67892 1.0100672 38.611852491782 18 1 18 171 2109
177	8924398 912 68 777 0.09995410364 1.001344 40 0 20 400 5340
179	8925310 121369 547 365852 1.0000672 199.97470280328 3821 1 3821 7301931 18602886211
180	9046679 252 26202 28364 14.395652289797 15.006111660611 9 1 9 45 285
181	9046931 128389 547 365852 1.0000672 199.97470280328 3821 64 244860 468439178 76491408183516
182	9175320 270 26202 28364 14.395652289797 15.006111660611 9 108 716 3588 1826840
186	9175590 252 26202 28364 14.395652289797 15.006111660611 9 1 9 45 285
191	9175842 960 74 786 0.118605855963 1.0014112 42 0 21 441 6181
193	9176802 120439 548 365828 1.0000672 199.969686224062 3793 1 3793 7195321 18196966809
194	9297241 252 66433 67684 38.283966613484 38.537723616201 9 1 9 45 285
195	9297493 127404 548 365828 1.0000672 199.969686224062 3793 64 243110 461618786 74854611382540
196	9424897 270 66433 67684 38.283966613484 38.537723616201 9 130 782 3896 2145752
200	9425167 252 66433 67684 38.283966613484 38.537723616201 9 1 9 45 285
205	9425419 226386 812 365869 1.0100672 199.98470480328 7660 0 144 245576 15771928
206	9651805 892 864 1435 1.0102036 1.019769745439 38 0 16 295 3055
208	9652697 2363344 0 365900 0 199.985190621461 81758 0 7 210526 796054
209	12016041 681270 0 365881 0 199.985000621461 23554 0 2 23478 46882
211	12697311 252 26165 28276 14.385652289797 14.996111660611 9 1 9 45 285
212	12697563 121379 805 365867 1.0100672 199.98470280328 3821 1 3821 7301931 18602886211
213	12818942 270 26165 28276 14.385652289797 14.996111660611 9 108 716 3588 1826840
214	12819212 128399 805 365867 1.0100672 199.98470280328 3821 64 244860 468439178 76491408183516
218	12947611 121379 805 365867 1.0100672 199.98470280328 3821 1 3821 7301931 18602886211
223	13068990 224668 813 365857 1.0100672 199.979688224062 7604 0 144 243892 15682984
224	13293658 943 865 1486 1.0102036 1.02104556362 40 0 18 356 4272
226	13294601 2362484 0 365865 0 199.980114042243 81200 0 7 209066 790438
227	15657085 679034 0 365863 0 199.979984042243 23346 0 2 23296 46544
229	16336119 252 66397 67647 38.273966613484 38.527723616201 9 1 9 45 285
230	16336371 120450 806 365855 1.0100672 199.979686224062 3793 1 3793 7195321 18196966809
231	16456821 270 66397 67647 38.273966613484 38.527723616201 9 130 782 3896 2145752
232	16457091 127415 806 365855 1.0100672 199.979686224062 3793 64 243110 461618786 74854611382540
236	16584506 120450 806 365855 1.0100672 199.979686224062 3793 1 3793 7195321 18196966809
241	16704956 10 0 0 0 0 1 1 1 1 1
242	16704966 56 18140 18144 10.221239940874 10.221308740874 2 0 1 1 1
244	16705022 302 549 67808 1.0000672 38.581734091782 11 1 11 66 506
245	16705324 303 1449 67689 1.0200672 38.541362891782 11 1 11 66 506
246	16705627 321 549 67808 1.0000672 38.581734091782 11 64 930 4972 3078128
247	16705948 322 1449 67689 1.0200672 38.541362891782 11 64 982 5102 3290036
251	16706270 303 1449 67689 1.0200672 38.541362891782 11 1 11 66 506
256	16706573 56 17937 17941 10.140899140874 10.140967940874 2 0 1 1 1
258	16706629 356 550 67696 1.0000672 38.541497291782 13 1 13 91 819
259	16706985 383 1451 67801 1.0200672 38.581615691782 14 1 14 105 1015
260	16707368 378 550 67696 1.0000672 38.541497291782 13 64 1110 6828 4946600
261	16707746 406 1451 67801 1.0200672 38.581615691782 14 64 1122 7572 5579824
265	16708152 383 1451 67801 1.0200672 38.581615691782 14 1 14 105 1015
270	16708535 75 132 132 0.233447027066 0.233447027066 3 1 1 3 3
271	16708610 50 87 3639 0.156140310969 2.528305054092 2 1 1 2 2
275	16708660 56 27689 67765 14.713665784735 38.561497291782 2 2 2 4 8
280	16708716 56 27051 67132 14.570450115098 38.418939678635 2 1 1 2 2
281	16708772 56 27087 67164 14.571653144151 38.419662716112 2 1 1 2 2
284	16708828 50 198 198 0.293585502868 0.293585502868 2 1 1 2 2
288	16708878 112 26304 67250 14.436020289797 38.450295096816 4 1 1 4 4
293	16708990 56 26796 66942 14.538571256992 38.386820803681 2 1 1 2 2
294	16709046 56 26809 66955 14.539494286045 38.387903841158 2 1 1 2 2
297	16709102 157 191 63897 0.289443216007 37.062556565743 6 1 1 6 6
298	16709259 56 26146 66378 14.385201826709 38.273482546214 2 1 1 2 2
299	16709315 631 27007 361077 14.570018845802 197.418924232623 22 1 1 22 22
302	16709946 55 26569 66691 14.507503015193 38.35565255767 2 1 1 2 2
303	16710001 56 27848 67914 14.774402489952 38.622320404374 2 1 1 2 2
304	16710057 110 26570 66694 14.507503015193 38.35565255767 4 1 1 4 4
305	16710167 110 26571 66695 14.507503015193 38.35565255767 4 1 1 4 4
308	16710277 111 26984 67494 14.569326004777 38.499992030663 4 1 1 4 4
309	16710388 112 27006 67409 14.570018845802 38.480305177231 4 1 1 4 4
310	16710500 51 254 3982 0.419663425534 2.746018912556 2 1 1 2 2
323	16710551 75 145 145 0.234158752695 0.234158752695 3 1 1 3 3
324	16710626 50 120 120 0.216189795476 0.216189795476 2 1 1 2 2
