file 35254536 1427204695                                        
version 2
run MCoA_ALL-0-20150324-14:42:03-5415
attr configname MCoA_ALL
attr datetime 20150324-14:42:03
attr experiment MCoA_ALL
attr inifile VoIPMCoACN.ini
attr iterationvars ""
attr iterationvars2 $repetition=0
attr measurement ""
attr network VoIPMCoAMulti
attr processid 5415
attr repetition 0
attr replication #0
attr resultdir results
attr runnumber 0
attr seedset 0

vector 0  VoIPMCoAMulti.Ra.networkLayer.ipv6  IPv6Active_Event  ETV
vector 51  VoIPMCoAMulti.CN[0].networkLayer.ipv6  IPv6Active_Event  ETV
vector 76  VoIPMCoAMulti.HA.networkLayer.ipv6  IPv6Active_Event  ETV
vector 133  VoIPMCoAMulti.MN[0].networkLayer.ipv6  IPv6Active_Event  ETV
vector 156  VoIPMCoAMulti.MN[1].networkLayer.ipv6  IPv6Active_Event  ETV
vector 162  VoIPMCoAMulti.R1.networkLayer.ipv6  IPv6Active_Event  ETV
vector 241  VoIPMCoAMulti.Rb.networkLayer.ipv6  IPv6Active_Event  ETV
vector 109  VoIPMCoAMulti.AP_HA.wlan.mac  RadioState  ETV
attr enum  "IDLE=0, RECV=1, SLEEP=3, TRANSMIT=2"
attr enumname  RadioState
vector 108  VoIPMCoAMulti.AP_HA.wlan.mac  State  ETV
attr enum  "BACKOFF=3, DEFER=1, IDLE=0, RECEIVE=8, WAITACK=4, WAITBROADCAST=5, WAITCTS=6, WAITDIFS=2, WAITSIFS=7"
attr enumname  Ieee80211Mac
vector 137  VoIPMCoAMulti.MN[0].wlan[0].mac  RadioState  ETV
attr enum  "IDLE=0, RECV=1, SLEEP=3, TRANSMIT=2"
attr enumname  RadioState
vector 136  VoIPMCoAMulti.MN[0].wlan[0].mac  State  ETV
attr enum  "BACKOFF=3, DEFER=1, IDLE=0, RECEIVE=8, WAITACK=4, WAITBROADCAST=5, WAITCTS=6, WAITDIFS=2, WAITSIFS=7"
attr enumname  Ieee80211Mac
vector 142  VoIPMCoAMulti.MN[0].wlan[1].mac  RadioState  ETV
attr enum  "IDLE=0, RECV=1, SLEEP=3, TRANSMIT=2"
attr enumname  RadioState
vector 141  VoIPMCoAMulti.MN[0].wlan[1].mac  State  ETV
attr enum  "BACKOFF=3, DEFER=1, IDLE=0, RECEIVE=8, WAITACK=4, WAITBROADCAST=5, WAITCTS=6, WAITDIFS=2, WAITSIFS=7"
attr enumname  Ieee80211Mac
vector 147  VoIPMCoAMulti.MN[0].wlan[2].mac  RadioState  ETV
attr enum  "IDLE=0, RECV=1, SLEEP=3, TRANSMIT=2"
attr enumname  RadioState
vector 146  VoIPMCoAMulti.MN[0].wlan[2].mac  State  ETV
attr enum  "BACKOFF=3, DEFER=1, IDLE=0, RECEIVE=8, WAITACK=4, WAITBROADCAST=5, WAITCTS=6, WAITDIFS=2, WAITSIFS=7"
attr enumname  Ieee80211Mac
vector 160  VoIPMCoAMulti.MN[1].wlan[0].mac  RadioState  ETV
attr enum  "IDLE=0, RECV=1, SLEEP=3, TRANSMIT=2"
attr enumname  RadioState
vector 159  VoIPMCoAMulti.MN[1].wlan[0].mac  State  ETV
attr enum  "BACKOFF=3, DEFER=1, IDLE=0, RECEIVE=8, WAITACK=4, WAITBROADCAST=5, WAITCTS=6, WAITDIFS=2, WAITSIFS=7"
attr enumname  Ieee80211Mac
vector 209  VoIPMCoAMulti.AP_1.wlan.mac  RadioState  ETV
attr enum  "IDLE=0, RECV=1, SLEEP=3, TRANSMIT=2"
attr enumname  RadioState
vector 208  VoIPMCoAMulti.AP_1.wlan.mac  State  ETV
attr enum  "BACKOFF=3, DEFER=1, IDLE=0, RECEIVE=8, WAITACK=4, WAITBROADCAST=5, WAITCTS=6, WAITDIFS=2, WAITSIFS=7"
attr enumname  Ieee80211Mac
vector 227  VoIPMCoAMulti.AP_2.wlan.mac  RadioState  ETV
attr enum  "IDLE=0, RECV=1, SLEEP=3, TRANSMIT=2"
attr enumname  RadioState
vector 226  VoIPMCoAMulti.AP_2.wlan.mac  State  ETV
attr enum  "BACKOFF=3, DEFER=1, IDLE=0, RECEIVE=8, WAITACK=4, WAITBROADCAST=5, WAITCTS=6, WAITDIFS=2, WAITSIFS=7"
attr enumname  Ieee80211Mac
vector 177  VoIPMCoAMulti.R1.eth[1].queue  "queue length"  ETV
vector 91  VoIPMCoAMulti.HA.eth[1].queue  "queue length"  ETV
vector 191  VoIPMCoAMulti.R1.eth[2].queue  "queue length"  ETV
vector 271  VoIPMCoAMulti.CN[0].networkLayer.neighbourDiscovery  "Starting DAD"  ETV
vector 324  VoIPMCoAMulti.Rb.networkLayer.neighbourDiscovery  "Starting DAD"  ETV
vector 270  VoIPMCoAMulti.Ra.networkLayer.neighbourDiscovery  "Starting DAD"  ETV
vector 323  VoIPMCoAMulti.R1.networkLayer.neighbourDiscovery  "Starting DAD"  ETV
vector 297  VoIPMCoAMulti.MN[0].networkLayer.neighbourDiscovery  "Starting DAD"  ETV
vector 284  VoIPMCoAMulti.HA.networkLayer.neighbourDiscovery  "Starting DAD"  ETV
vector 310  VoIPMCoAMulti.MN[1].networkLayer.neighbourDiscovery  "Starting DAD"  ETV
vector 3  VoIPMCoAMulti.Ra.eth[0].mac  framesSent  ETV
vector 5  VoIPMCoAMulti.Ra.eth[0].mac  bytesSent  ETV
vector 17  VoIPMCoAMulti.Ra.eth[1].mac  framesSent  ETV
vector 19  VoIPMCoAMulti.Ra.eth[1].mac  bytesSent  ETV
vector 31  VoIPMCoAMulti.Ra.eth[2].mac  framesSent  ETV
vector 33  VoIPMCoAMulti.Ra.eth[2].mac  bytesSent  ETV
vector 54  VoIPMCoAMulti.CN[0].eth[0].mac  framesSent  ETV
vector 56  VoIPMCoAMulti.CN[0].eth[0].mac  bytesSent  ETV
vector 79  VoIPMCoAMulti.HA.eth[0].mac  framesSent  ETV
vector 81  VoIPMCoAMulti.HA.eth[0].mac  bytesSent  ETV
vector 93  VoIPMCoAMulti.HA.eth[1].mac  framesSent  ETV
vector 95  VoIPMCoAMulti.HA.eth[1].mac  bytesSent  ETV
vector 165  VoIPMCoAMulti.R1.eth[0].mac  framesSent  ETV
vector 167  VoIPMCoAMulti.R1.eth[0].mac  bytesSent  ETV
vector 179  VoIPMCoAMulti.R1.eth[1].mac  framesSent  ETV
vector 181  VoIPMCoAMulti.R1.eth[1].mac  bytesSent  ETV
vector 193  VoIPMCoAMulti.R1.eth[2].mac  framesSent  ETV
vector 195  VoIPMCoAMulti.R1.eth[2].mac  bytesSent  ETV
vector 244  VoIPMCoAMulti.Rb.eth[0].mac  framesSent  ETV
vector 246  VoIPMCoAMulti.Rb.eth[0].mac  bytesSent  ETV
vector 258  VoIPMCoAMulti.Rb.eth[1].mac  framesSent  ETV
vector 260  VoIPMCoAMulti.Rb.eth[1].mac  bytesSent  ETV
vector 80  VoIPMCoAMulti.HA.eth[0].mac  framesReceivedOK  ETV
vector 82  VoIPMCoAMulti.HA.eth[0].mac  bytesReceivedOK  ETV
vector 86  VoIPMCoAMulti.HA.eth[0].mac  framesPassedToHL  ETV
vector 166  VoIPMCoAMulti.R1.eth[0].mac  framesReceivedOK  ETV
vector 168  VoIPMCoAMulti.R1.eth[0].mac  bytesReceivedOK  ETV
vector 172  VoIPMCoAMulti.R1.eth[0].mac  framesPassedToHL  ETV
vector 4  VoIPMCoAMulti.Ra.eth[0].mac  framesReceivedOK  ETV
vector 6  VoIPMCoAMulti.Ra.eth[0].mac  bytesReceivedOK  ETV
vector 10  VoIPMCoAMulti.Ra.eth[0].mac  framesPassedToHL  ETV
vector 112  VoIPMCoAMulti.AP_HA.eth[0]  framesReceivedOK  ETV
vector 114  VoIPMCoAMulti.AP_HA.eth[0]  bytesReceivedOK  ETV
vector 118  VoIPMCoAMulti.AP_HA.eth[0]  framesPassedToHL  ETV
vector 18  VoIPMCoAMulti.Ra.eth[1].mac  framesReceivedOK  ETV
vector 20  VoIPMCoAMulti.Ra.eth[1].mac  bytesReceivedOK  ETV
vector 24  VoIPMCoAMulti.Ra.eth[1].mac  framesPassedToHL  ETV
vector 212  VoIPMCoAMulti.AP_1.eth[0]  framesReceivedOK  ETV
vector 214  VoIPMCoAMulti.AP_1.eth[0]  bytesReceivedOK  ETV
vector 218  VoIPMCoAMulti.AP_1.eth[0]  framesPassedToHL  ETV
vector 230  VoIPMCoAMulti.AP_2.eth[0]  framesReceivedOK  ETV
vector 232  VoIPMCoAMulti.AP_2.eth[0]  bytesReceivedOK  ETV
vector 236  VoIPMCoAMulti.AP_2.eth[0]  framesPassedToHL  ETV
vector 105  VoIPMCoAMulti.AP_HA.relayUnit  "buffer level"  ETV
vector 205  VoIPMCoAMulti.AP_1.relayUnit  "buffer level"  ETV
vector 223  VoIPMCoAMulti.AP_2.relayUnit  "buffer level"  ETV
vector 106  VoIPMCoAMulti.AP_HA.wlan.mgmt  "queue length"  ETV
vector 206  VoIPMCoAMulti.AP_1.wlan.mgmt  "queue length"  ETV
vector 224  VoIPMCoAMulti.AP_2.wlan.mgmt  "queue length"  ETV
vector 245  VoIPMCoAMulti.Rb.eth[0].mac  framesReceivedOK  ETV
vector 247  VoIPMCoAMulti.Rb.eth[0].mac  bytesReceivedOK  ETV
vector 251  VoIPMCoAMulti.Rb.eth[0].mac  framesPassedToHL  ETV
vector 32  VoIPMCoAMulti.Ra.eth[2].mac  framesReceivedOK  ETV
vector 34  VoIPMCoAMulti.Ra.eth[2].mac  bytesReceivedOK  ETV
vector 38  VoIPMCoAMulti.Ra.eth[2].mac  framesPassedToHL  ETV
vector 259  VoIPMCoAMulti.Rb.eth[1].mac  framesReceivedOK  ETV
vector 261  VoIPMCoAMulti.Rb.eth[1].mac  bytesReceivedOK  ETV
vector 265  VoIPMCoAMulti.Rb.eth[1].mac  framesPassedToHL  ETV
vector 55  VoIPMCoAMulti.CN[0].eth[0].mac  framesReceivedOK  ETV
vector 57  VoIPMCoAMulti.CN[0].eth[0].mac  bytesReceivedOK  ETV
vector 61  VoIPMCoAMulti.CN[0].eth[0].mac  framesPassedToHL  ETV
vector 161  VoIPMCoAMulti.MN[1].wlan[0].radio  "MAC loss rate"  ETV
vector 138  VoIPMCoAMulti.MN[0].wlan[0].radio  "MAC loss rate"  ETV
vector 111  VoIPMCoAMulti.AP_HA.eth[0]  framesSent  ETV
vector 113  VoIPMCoAMulti.AP_HA.eth[0]  bytesSent  ETV
vector 94  VoIPMCoAMulti.HA.eth[1].mac  framesReceivedOK  ETV
vector 96  VoIPMCoAMulti.HA.eth[1].mac  bytesReceivedOK  ETV
vector 100  VoIPMCoAMulti.HA.eth[1].mac  framesPassedToHL  ETV
vector 77  VoIPMCoAMulti.HA.eth[0].queue  "queue length"  ETV
vector 29  VoIPMCoAMulti.Ra.eth[2].queue  "queue length"  ETV
vector 256  VoIPMCoAMulti.Rb.eth[1].queue  "queue length"  ETV
vector 52  VoIPMCoAMulti.CN[0].eth[0].queue  "queue length"  ETV
vector 242  VoIPMCoAMulti.Rb.eth[0].queue  "queue length"  ETV
vector 1  VoIPMCoAMulti.Ra.eth[0].queue  "queue length"  ETV
vector 143  VoIPMCoAMulti.MN[0].wlan[1].radio  "MAC loss rate"  ETV
vector 298  VoIPMCoAMulti.MN[0].networkLayer.xMobileIPv6  "BU to HA"  ETV
vector 211  VoIPMCoAMulti.AP_1.eth[0]  framesSent  ETV
vector 213  VoIPMCoAMulti.AP_1.eth[0]  bytesSent  ETV
vector 180  VoIPMCoAMulti.R1.eth[1].mac  framesReceivedOK  ETV
vector 182  VoIPMCoAMulti.R1.eth[1].mac  bytesReceivedOK  ETV
vector 186  VoIPMCoAMulti.R1.eth[1].mac  framesPassedToHL  ETV
vector 288  VoIPMCoAMulti.HA.networkLayer.xMobileIPv6  "BA to MN"  ETV
vector 302  VoIPMCoAMulti.MN[0].networkLayer.xMobileIPv6  "BA from HA"  ETV
vector 304  VoIPMCoAMulti.MN[0].networkLayer.xMobileIPv6  "HoTI to CN"  ETV
vector 305  VoIPMCoAMulti.MN[0].networkLayer.xMobileIPv6  "CoTI to CN"  ETV
vector 139  VoIPMCoAMulti.MN[0].wlan[1].mgmt  "queue length"  ETV
vector 293  VoIPMCoAMulti.HA.networkLayer.xMobileIPv6  "HoT to MN"  ETV
vector 294  VoIPMCoAMulti.HA.networkLayer.xMobileIPv6  "CoT to MN"  ETV
vector 308  VoIPMCoAMulti.MN[0].networkLayer.xMobileIPv6  "HoT from CN"  ETV
vector 309  VoIPMCoAMulti.MN[0].networkLayer.xMobileIPv6  "CoT from CN"  ETV
vector 299  VoIPMCoAMulti.MN[0].networkLayer.xMobileIPv6  "BU to CN"  ETV
vector 280  VoIPMCoAMulti.CN[0].networkLayer.xMobileIPv6  "HoT to MN"  ETV
vector 281  VoIPMCoAMulti.CN[0].networkLayer.xMobileIPv6  "CoT to MN"  ETV
vector 275  VoIPMCoAMulti.CN[0].networkLayer.xMobileIPv6  "BA to MN"  ETV
vector 303  VoIPMCoAMulti.MN[0].networkLayer.xMobileIPv6  "BA from CN"  ETV
vector 134  VoIPMCoAMulti.MN[0].wlan[0].mgmt  "queue length"  ETV
vector 110  VoIPMCoAMulti.AP_HA.wlan.radio  "MAC loss rate"  ETV
vector 210  VoIPMCoAMulti.AP_1.wlan.radio  "MAC loss rate"  ETV
vector 148  VoIPMCoAMulti.MN[0].wlan[2].radio  "MAC loss rate"  ETV
vector 229  VoIPMCoAMulti.AP_2.eth[0]  framesSent  ETV
vector 231  VoIPMCoAMulti.AP_2.eth[0]  bytesSent  ETV
vector 194  VoIPMCoAMulti.R1.eth[2].mac  framesReceivedOK  ETV
vector 196  VoIPMCoAMulti.R1.eth[2].mac  bytesReceivedOK  ETV
vector 200  VoIPMCoAMulti.R1.eth[2].mac  framesPassedToHL  ETV
vector 144  VoIPMCoAMulti.MN[0].wlan[2].mgmt  "queue length"  ETV
0	10522 8 0 0 0 0 1 1 1 1 1
1	10530 52 18253 18257 10.261443140874 10.261511940874 2 0 1 1 1
3	10582 865 540 450117 1.0000672 232.059662405575 32 1 32 528 11440
4	11447 5570 802 450183 1.0100672 232.079793605575 203 1 203 20706 2809114
5	17017 925 540 450117 1.0000672 232.059662405575 32 64 2880 45092 88521544
6	17942 5923 802 450183 1.0100672 232.079793605575 203 64 14534 1419532 13103895560
10	23865 5773 802 450183 1.0100672 232.079793605575 203 1 203 20706 2809114
17	29638 10632 541 450190 1.0000672 232.079924805575 371 1 371 69006 17090486
18	40270 815 804 449946 1.0100672 231.979179205575 29 1 29 435 8555
19	41085 11324 541 450190 1.0000672 232.079924805575 371 64 25776 4671296 77636898320
20	52409 871 804 449946 1.0100672 231.979179205575 29 64 2870 43312 86921272
24	53280 815 804 449946 1.0100672 231.979179205575 29 1 29 435 8555
29	54095 54 17779 17783 10.080695940874 10.080764740874 2 0 1 1 1
31	54149 5449 542 449953 1.0000672 231.979272005575 192 1 192 18528 2377760
32	59598 10394 1450 450110 1.0200672 232.059563205575 363 1 363 66066 16009994
33	69992 5778 542 449953 1.0000672 231.979272005575 192 64 13074 1245422 10686118252
34	75770 11064 1450 450110 1.0200672 232.059563205575 363 64 24326 4393094 70591830588
38	86834 10394 1450 450110 1.0200672 232.059563205575 363 1 363 66066 16009994
51	97228 9 0 0 0 0 1 1 1 1 1
52	97237 9262 17994 446178 10.161036740874 229.999959685556 344 0 1 172 172
54	106499 10473 543 450024 1.0000672 232.019464005575 366 1 366 67161 16409671
55	116972 5504 1452 450015 1.0200672 232.019364805575 194 1 194 18915 2452645
56	122476 11149 543 450024 1.0000672 232.019464005575 366 64 24518 4463286 72292409916
57	133625 5837 1452 450015 1.0200672 232.019364805575 194 64 13202 1270324 11008337600
61	139462 5504 1452 450015 1.0200672 232.019364805575 194 1 194 18915 2452645
76	144966 37 0 84968 0 35 3 1 2 4 6
77	145003 110 17641 445785 10.030492740874 229.90721734775 4 0 1 2 2
79	145113 5773 544 450163 1.0000672 232.069793605575 203 1 203 20706 2809114
80	150886 897 800 450154 1.0100672 232.069662405575 32 1 32 528 11440
81	151783 6126 544 450163 1.0000672 232.069793605575 203 64 14534 1419532 13103895560
82	157909 957 800 450154 1.0100672 232.069662405575 32 64 2880 45092 88521544
86	158866 897 800 450154 1.0100672 232.069662405575 32 1 32 528 11440
91	159763 832 71 764 0.115677423169 1.0012768 38 0 19 361 4579
93	160595 143880 545 459205 1.0000672 237.074162623713 4646 1 4646 10794981 33439252811
94	304475 5120 8530 52588 5.111241259032 19.194614149881 181 1 181 16471 1992991
95	309595 152545 545 459205 1.0000672 237.074162623713 4646 64 297354 690922700 1.3698095527022e+14
96	462140 5386 8530 52588 5.111241259032 19.194614149881 181 40 8656 784936 4541482432
100	467526 5301 8530 52588 5.111241259032 19.194614149881 181 1 181 16471 1992991
105	472827 286269 810 459124 1.0100672 237.032094389212 9652 0 66 305946 19441428
106	759096 846 863 1507 1.0102036 1.022153927258 36 0 16 288 3114
108	759942 2948648 0 459138 0 237.032560207393 100880 0 7 256902 978834
109	3708590 871528 0 459131 0 237.032390207393 29866 0 2 29406 58354
110	4580118 110 36854 51915 17.956129751197 19.1816758406 4 0 0 0 0
111	4580228 5301 8491 52128 5.101241259032 19.184614149881 181 1 181 16471 1992991
112	4585529 148502 803 459122 1.0100672 237.032092389212 4645 1 4645 10790335 33417667495
113	4734031 5567 8491 52128 5.101241259032 19.184614149881 181 40 8656 784936 4541482432
114	4739598 157165 803 459122 1.0100672 237.032092389212 4645 64 297290 690625346 1.3689253586891e+14
118	4896763 148502 803 459122 1.0100672 237.032092389212 4645 1 4645 10790335 33417667495
133	5045265 10 0 0 0 0 1 1 1 1 1
134	5045275 9126 33067 52019 16.830500894723 19.182974977059 318 0 82 10751 562907
136	5054401 1017854 0 458818 0 236.835605823815 34968 0 7 22258 83818
137	6072255 617972 0 458806 0 236.835295823815 21244 0 2 11710 13890
138	6690227 2771 8118 443887 4.911634841796 228.904938044489 95 0 0 0 0
139	6692998 112 27706 27762 14.814942691886 14.816846712756 4 0 2 4 6
141	6693110 930830 0 459170 0 237.05238079549 31828 0 7 16900 68284
142	7623940 561558 0 459169 0 237.05238079549 19200 0 2 10626 12682
143	8185498 2490 26839 457002 14.542664994204 235.842664621959 85 0 0 0 0
144	8187988 111 92564 92632 38.846141448672 38.84794547449 4 0 2 4 6
146	8188099 468482 0 459191 0 237.063477021397 15970 0 7 31584 119604
147	8656581 179258 0 459189 0 237.062927021397 6116 0 2 4804 8300
148	8835839 382 91639 293204 38.462655885303 147.255675636967 13 0 0 0 0
156	8836221 10 0 0 0 0 1 1 1 1 1
159	8836231 1342460 0 459133 0 237.032390638889 45992 0 7 356 1400
160	10178691 878874 0 459132 0 237.032390638889 30084 0 2 15058 15094
161	11057565 4389 6246 458543 3.976472286066 236.685024332493 150 0 0.02 0.04 0.0008
162	11061954 71 0 100596 0 45 5 1 2 7 11
165	11062025 844 546 449907 1.0000672 231.969179205575 29 1 29 435 8555
166	11062869 11003 801 450216 1.0100672 232.089924805575 371 1 371 69006 17090486
167	11073872 900 546 449907 1.0000672 231.969179205575 29 64 2870 43312 86921272
168	11074772 11695 801 450216 1.0100672 232.089924805575 371 64 25776 4671296 77636898320
172	11086467 11003 801 450216 1.0100672 232.089924805575 371 1 371 69006 17090486
177	11097470 912 68 777 0.09995410364 1.001344 40 0 20 400 5340
179	11098382 148067 547 459145 1.0000672 237.042082572411 4633 1 4633 10734661 33159367829
180	11246449 591 27297 449900 14.703091994417 231.969086405575 20 1 20 210 2870
181	11247040 156714 547 459145 1.0000672 237.042082572411 4633 64 297034 689112990 1.3649077510844e+14
182	11403754 628 27297 449900 14.703091994417 231.969086405575 20 108 1536 16498 17579740
186	11404382 591 27297 449900 14.703091994417 231.969086405575 20 1 20 210 2870
191	11404973 1019 74 449701 0.118605855963 231.927569189608 44 0 21 442 6182
193	11405992 146285 548 459198 1.0000672 237.071846806483 4573 1 4573 10458451 31887817099
194	11552277 252 92304 94766 38.774455547492 39.631046675341 9 1 9 45 285
195	11552529 154810 548 459198 1.0000672 237.071846806483 4573 64 293670 670854986 1.3115209663656e+14
196	11707339 270 92304 94766 38.774455547492 39.631046675341 9 130 782 3896 2145752
200	11707609 252 92304 94766 38.774455547492 39.631046675341 9 1 9 45 285
205	11707861 276389 812 459161 1.0100672 237.052084572411 9306 0 144 298570 19187676
206	11984250 5200 864 46975 1.0102036 19.112104905318 190 0 18 1441 15615
208	11989450 2874052 0 459175 0 237.052450390592 98860 0 7 255632 966692
209	14863502 841480 0 459168 0 237.052380390592 28938 0 2 28608 56888
210	15704982 86 43025 422187 19.074430039035 218.147534046303 3 0 0 0 0
211	15705068 591 27278 449861 14.693091994417 231.959086405575 20 1 20 210 2870
212	15705659 148077 805 459159 1.0100672 237.052082572411 4633 1 4633 10734661 33159367829
213	15853736 628 27278 449861 14.693091994417 231.959086405575 20 108 1536 16498 17579740
214	15854364 156724 805 459159 1.0100672 237.052082572411 4633 64 297034 689112990 1.3649077510844e+14
218	16011088 148077 805 459159 1.0100672 237.052082572411 4633 1 4633 10734661 33159367829
223	16159165 272468 813 459209 1.0100672 237.081848806483 9164 0 144 294452 19010984
224	16431633 943 865 1486 1.0102036 1.02104556362 40 0 18 356 4272
226	16432576 2872628 0 459212 0 237.081898806483 98089 0 7 253104 956420
227	19305204 828696 0 459181 0 237.062655096911 28302 0 2 28228 56384
229	20133900 252 92261 94734 38.764455547492 39.621046675341 9 1 9 45 285
230	20134152 146296 806 459207 1.0100672 237.081846806483 4573 1 4573 10458451 31887817099
231	20280448 270 92261 94734 38.764455547492 39.621046675341 9 130 782 3896 2145752
232	20280718 154821 806 459207 1.0100672 237.081846806483 4573 64 293670 670854986 1.3115209663656e+14
236	20435539 146296 806 459207 1.0100672 237.081846806483 4573 1 4573 10458451 31887817099
241	20581835 10 0 0 0 0 1 1 1 1 1
242	20581845 56 18140 18144 10.221239940874 10.221308740874 2 0 1 1 1
244	20581901 10756 549 450071 1.0000672 232.039563205575 363 1 363 66066 16009994
245	20592657 5642 1449 449990 1.0200672 231.999272005575 192 1 192 18528 2377760
246	20598299 11426 549 450071 1.0000672 232.039563205575 363 64 24326 4393094 70591830588
247	20609725 5971 1449 449990 1.0200672 231.999272005575 192 64 13074 1245422 10686118252
251	20615696 5642 1449 449990 1.0200672 231.999272005575 192 1 192 18528 2377760
256	20621338 56 17937 17941 10.140899140874 10.140967940874 2 0 1 1 1
258	20621394 5697 550 449997 1.0000672 231.999364805575 194 1 194 18915 2452645
259	20627091 10840 1451 450064 1.0200672 232.039464005575 366 1 366 67161 16409671
260	20637931 6030 550 449997 1.0000672 231.999364805575 194 64 13202 1270324 11008337600
261	20643961 11516 1451 450064 1.0200672 232.039464005575 366 64 24518 4463286 72292409916
265	20655477 10840 1451 450064 1.0200672 232.039464005575 366 1 366 67161 16409671
270	20666317 75 132 132 0.233447027066 0.233447027066 3 1 1 3 3
271	20666392 50 87 3639 0.156140310969 2.528305054092 2 1 1 2 2
275	20666442 56 28903 93568 15.021000955272 39.052550542816 2 2 2 4 8
280	20666498 175 28120 450018 14.877629745246 232.019364805575 6 1 1 6 6
281	20666673 86 28176 435510 14.878592755681 224.999918085556 3 1 1 3 3
284	20666759 50 198 198 0.293585502868 0.293585502868 2 1 1 2 2
288	20666809 112 27429 93118 14.743459994417 38.939628095953 4 1 1 4 4
293	20666921 175 27953 449650 14.845830924376 231.907175589608 6 1 1 6 6
294	20667096 86 27966 435153 14.846853934811 224.908004867276 3 1 1 3 3
297	20667182 155 191 88887 0.289443216007 37.0938037931 6 1 1 6 6
298	20667337 56 27259 92241 14.692641540644 38.763971495583 2 1 1 2 2
299	20667393 683 28100 445799 14.877414782384 229.90859724711 24 1 1 24 24
302	20668076 56 27695 92553 14.814942691886 38.846141448672 2 1 1 2 2
303	20668132 55 29066 93742 15.081737651198 39.11337364008 2 1 1 2 2
304	20668187 352 27696 449843 14.814942691886 231.958682080631 12 1 1 12 12
305	20668539 172 27697 435237 14.814942691886 224.939235203254 6 1 1 6 6
308	20668711 111 28076 93395 14.876585662858 38.99010084184 4 1 1 4 4
309	20668822 170 28099 435685 14.877414782384 225.060560383458 6 1 1 6 6
310	20668992 51 254 3982 0.419663425534 2.746018912556 2 1 1 2 2
323	20669043 75 145 145 0.234158752695 0.234158752695 3 1 1 3 3
324	20669118 50 120 120 0.216189795476 0.216189795476 2 1 1 2 2
vector 228  VoIPMCoAMulti.AP_2.wlan.radio  "MAC loss rate"  ETV
3	20669232 607 464569 758267 239.89717551369 394.033165219659 21 33 53 903 39599
4	20669839 508 464617 748196 239.91730671369 388.917284471687 17 204 220 3604 764456
5	20670347 649 464569 758267 239.89717551369 394.033165219659 21 2976 4688 81680 323340928
6	20670996 542 464617 748196 239.91730671369 388.917284471687 17 14678 16600 266802 4193386348
10	20671538 525 464617 748196 239.91730671369 388.917284471687 17 204 220 3604 764456
17	20672063 679 464624 748212 239.91743791369 388.917374071687 22 372 393 8415 3219623
18	20672742 657 464562 748262 239.89708271369 388.937441271687 22 30 51 891 36971
19	20673399 723 464624 748212 239.91743791369 388.917374071687 22 25920 28436 598998 16322343380
20	20674122 701 464562 748262 239.89708271369 388.937441271687 22 2966 5062 89764 375534936
24	20674823 657 464562 748262 239.89708271369 388.937441271687 22 30 51 891 36971
31	20675480 464 464814 748658 239.979271931558 389.059598491081 15 193 207 3000 600280
32	20675944 464 465116 748645 240.059563131558 389.059531291081 15 364 378 5565 2064895
33	20676408 494 464814 748658 239.979271931558 389.059598491081 15 13170 14594 209314 2923844892
34	20676902 494 465116 748645 240.059563131558 389.059531291081 15 24430 25800 377508 9503630536
38	20677396 464 465116 748645 240.059563131558 389.059531291081 15 364 378 5565 2064895
52	20677860 116 567424 748537 293.019364784217 389.019406491081 4 0 1 2 2
54	20677976 464 465010 748541 240.019463931558 389.019473691081 15 367 381 5610 2098420
55	20678440 588 465001 748653 240.019364731558 389.059540891081 19 195 213 3876 791274
56	20679028 494 465010 748541 240.019463931558 389.019473691081 15 24622 25992 380388 9649146568
57	20679522 626 465001 748653 240.019364731558 389.059540891081 19 13298 14978 269894 3838892236
61	20680148 588 465001 748653 240.019364731558 389.059540891081 19 195 213 3876 791274
77	20680736 116 567068 748149 292.907175569488 388.907217271687 4 0 1 2 2
79	20680852 525 464600 748153 239.90730671369 388.907284471687 17 204 220 3604 764456
80	20681377 628 464589 758293 239.90717551369 394.043165219659 21 33 53 903 39599
81	20682005 559 464600 748153 239.90730671369 388.907284471687 17 14678 16600 266802 4193386348
82	20682564 670 464589 758293 239.90717551369 394.043165219659 21 2976 4688 81680 323340928
86	20683234 628 464589 758293 239.90717551369 394.043165219659 21 33 53 903 39599
93	20683862 104284 459291 769233 237.114962907543 399.975630608768 3270 4647 7916 20540505 131938997135
94	20788146 62 629069 638291 324.886931852624 329.908361452486 2 182 183 365 66613
95	20788208 110824 459291 769233 237.114962907543 399.975630608768 3270 297418 506634 1314625020 5.4044842443836e+14
96	20899032 64 629069 638291 324.886931852624 329.908361452486 2 8696 8736 17432 151938112
100	20899096 64 629069 638291 324.886931852624 329.908361452486 2 182 183 365 66613
105	20899160 198941 459227 769256 237.084162623713 399.985632608768 6546 0 64 209424 13401216
108	21098101 2058094 459230 769270 237.084164623713 399.986058426949 68770 0 7 177010 668974
109	23156195 590760 459232 769263 237.084214623713 399.985928426949 19740 0 2 19704 39372
111	23746955 64 629026 638245 324.876931852624 329.898361452486 2 182 183 365 66613
112	23747019 107587 459226 769254 237.084162623713 399.985630608768 3271 4646 7916 20545151 131960582451
113	23854606 66 629026 638245 324.876931852624 329.898361452486 2 8696 8736 17432 151938112
114	23854672 114129 459226 769254 237.084162623713 399.985630608768 3271 297354 506634 1314922374 5.4053684383968e+14
118	23968801 107587 459226 769254 237.084162623713 399.985630608768 3271 4646 7916 20545151 131960582451
136	24076388 524674 459254 769078 237.085024732906 399.885605823418 17534 0 7 14640 55480
137	24601062 286728 459257 769076 237.085074732906 399.885295823418 9588 0 2 5606 7230
138	24887790 1197 592355 713582 305.787695241525 370.487087958037 40 0 0 0 0
141	24888987 693556 459275 769177 237.092691696742 399.943606131672 23192 0 7 9002 34138
142	25582543 426732 459275 769174 237.092691696742 399.942936131672 14272 0 2 7624 8600
143	26009275 2006 460078 761919 237.518541317102 395.94266503265 67 0 0 0 0
146	26011281 581960 459663 769221 237.312655930488 399.968394867363 19452 0 7 14136 54148
147	26593241 330988 459665 769220 237.312705930488 399.968394867363 11068 0 2 6322 7898
148	26924229 1404 465893 767593 240.462655894734 399.094408508856 47 0 0 0 0
159	26925633 901858 459233 769265 237.084215055209 399.985928858445 30142 0 0 0 0
160	27827491 599986 459233 769264 237.084215055209 399.985928858445 20052 0 1 10026 10026
161	28427477 2994 461160 767818 238.119633336334 399.232578342453 100 0 0.02 0.02 0.0004
165	28430471 679 464535 748240 239.88708271369 388.927441271687 22 30 51 891 36971
166	28431150 701 464662 748226 239.92743791369 388.927374071687 22 372 393 8415 3219623
167	28431851 723 464535 748240 239.88708271369 388.927441271687 22 2966 5062 89764 375534936
168	28432574 745 464662 748226 239.92743791369 388.927374071687 22 25920 28436 598998 16322343380
172	28433319 701 464662 748226 239.92743791369 388.927374071687 22 372 393 8415 3219623
179	28434020 106949 459224 769240 237.082639291844 399.983481261539 3252 4634 7885 20355894 130283679806
180	28540969 308 464528 738326 239.88698991369 383.969086491081 10 21 30 255 6585
181	28541277 113453 459224 769240 237.082639291844 399.983481261539 3252 297098 505162 1304474760 5.3500293801685e+14
182	28654730 328 464528 738326 239.88698991369 383.969086491081 10 1614 2316 19650 39114180
186	28655058 308 464528 738326 239.88698991369 383.969086491081 10 21 30 255 6585
191	28655366 60 466915 466919 240.948150314284 240.948281514284 2 0 1 1 1
193	28655426 107944 459342 769196 237.135830012002 399.958096380996 3282 4574 7855 20395989 129696885181
194	28763370 340 466908 748362 240.948150314284 388.948628403811 11 10 20 165 2585
195	28763710 114508 459342 769196 237.135830012002 399.958096380996 3282 293734 504970 1311584934 5.3631842643779e+14
196	28878218 360 466908 748362 240.948150314284 388.948628403811 11 822 1734 14362 19752764
200	28878578 340 466908 748362 240.948150314284 388.948628403811 11 10 20 165 2585
205	28878918 198244 459269 769274 237.092639291844 399.993483261539 6524 0 78 208908 13381032
208	29077162 2043156 459272 769282 237.092641291844 399.99386907972 68708 0 7 176708 668356
209	31120318 589240 459274 769280 237.092691291844 399.99377907972 19800 0 2 19728 39384
210	31709558 30 738301 738301 383.959006091081 383.959006091081 1 0 0 0 0
211	31709588 308 464502 738311 239.87698991369 383.959086491081 10 21 30 255 6585
212	31709896 106949 459268 769272 237.092639291844 399.993481261539 3252 4634 7885 20355894 130283679806
213	31816845 328 464502 738311 239.87698991369 383.959086491081 10 1614 2316 19650 39114180
214	31817173 113453 459268 769272 237.092639291844 399.993481261539 3252 297098 505162 1304474760 5.3500293801685e+14
218	31930626 106949 459268 769272 237.092639291844 399.993481261539 3252 4634 7885 20355894 130283679806
223	32037575 200167 459357 769212 237.145830012002 399.968098380996 6586 0 144 212252 13793896
226	32237742 2077126 459212 769226 237.081898806483 399.968444199177 69407 0 7 178836 676092
227	34314868 600676 459213 769219 237.081898806483 399.968394199177 20072 0 2 19968 39832
228	34915544 30 466959 466959 240.958901442152 240.958901442152 1 0 0 0 0
229	34915574 340 466841 748315 240.938150314284 388.938628403811 11 10 20 165 2585
230	34915914 107944 459356 769210 237.145830012002 399.968096380996 3282 4574 7855 20395989 129696885181
231	35023858 360 466841 748315 240.938150314284 388.938628403811 11 822 1734 14362 19752764
232	35024218 114508 459356 769210 237.145830012002 399.968096380996 3282 293734 504970 1311584934 5.3631842643779e+14
236	35138726 107944 459356 769210 237.145830012002 399.968096380996 3282 4574 7855 20395989 129696885181
244	35246670 479 465070 748577 240.039563131558 389.039531291081 15 364 378 5565 2064895
245	35247149 479 464851 748704 239.999271931558 389.079598491081 15 193 207 3000 600280
246	35247628 509 465070 748577 240.039563131558 389.039531291081 15 24430 25800 377508 9503630536
247	35248137 509 464851 748704 239.999271931558 389.079598491081 15 13170 14594 209314 2923844892
251	35248646 479 464851 748704 239.999271931558 389.079598491081 15 193 207 3000 600280
258	35249125 607 464858 748578 239.999364731558 389.039540891081 19 195 213 3876 791274
259	35249732 479 465062 748567 240.039463931558 389.039473691081 15 367 381 5610 2098420
260	35250211 645 464858 748578 239.999364731558 389.039540891081 19 13298 14978 269894 3838892236
261	35250856 509 465062 748567 240.039463931558 389.039473691081 15 24622 25992 380388 9649146568
265	35251365 479 465062 748567 240.039463931558 389.039473691081 15 367 381 5610 2098420
275	35251844 119 467161 557891 241.020745842747 288.162061713242 4 2 2 8 16
280	35251963 180 465004 738446 240.019364731558 384.019364891081 6 1 1 6 6
281	35252143 30 482944 482944 249.031236750955 249.031236750955 1 1 1 1 1